3
Time=250.00000000 pbc="T T T" Lattice="23.91741943 -0.00000074 0.00000214 -0.00000037 11.95871544 -0.00000316 0.00000107 -0.00000316 11.95871735" energy=-5.36547089 virial="0.00340115 0.37890179 1.10463423 0.37890179 -0.15635746 -0.13541993 1.10463423 -0.13541993 0.53691276" stress="0.00002367 0.00011078 0.00032295 0.00011078 -0.00002304 -0.00003959 0.00032295 -0.00003959 0.00017965" Properties=species:S:1:pos:R:3:vel:R:3:forces:R:3
Au 19.28365635 5.19096412 5.35659452 -0.00266401 0.00058876 -0.00053250 -0.50971277 0.05103207 -0.28105695
Au 18.16954377 6.28430305 7.59713067 0.00026859 -0.00072754 -0.00188924 0.28523153 -0.17757867 -0.27604652
Au 20.71442701 5.48963839 7.43054484 0.00239543 0.00013877 0.00242174 0.22448125 0.12654660 0.55710348
3
Time=500.00000000 pbc="T T T" Lattice="23.91741943 -0.00000074 0.00000214 -0.00000037 11.95871544 -0.00000316 0.00000107 -0.00000316 11.95871735" energy=-4.96453094 virial="1.02214050 -0.21414685 0.23848721 -0.21414685 -0.27832217 -0.98972976 0.23848721 -0.98972976 -2.67700169" stress="0.00032151 -0.00006261 0.00006972 -0.00006261 -0.00005870 -0.00028936 0.00006972 -0.00028936 -0.00075997" Properties=species:S:1:pos:R:3:vel:R:3:forces:R:3
Au 18.89381027 5.18505349 5.01095071 -0.00067758 0.00058859 0.00114062 -0.03696669 0.37320788 1.05406776
Au 18.43195964 6.18090997 7.51757789 -0.00173546 -0.00017306 -0.00196540 -0.39426059 -0.21282216 -0.95101995
Au 20.84185721 5.59894210 7.85574142 0.00241304 -0.00041553 0.00082478 0.43122728 -0.16038572 -0.10304780
3
Time=750.00000000 pbc="T T T" Lattice="23.91741943 -0.00000074 0.00000214 -0.00000037 11.95871544 -0.00000316 0.00000107 -0.00000316 11.95871735" energy=-5.13722229 virial="-0.16120646 -0.09007388 -0.39773781 -0.09007388 -0.30492464 -0.96254932 -0.39773781 -0.96254932 -3.13400508" stress="-0.00002446 -0.00002633 -0.00011628 -0.00002633 -0.00006647 -0.00028141 -0.00011628 -0.00028141 -0.00089358" Properties=species:S:1:pos:R:3:vel:R:3:forces:R:3
Au 19.09824700 5.17102467 5.14240128 0.00240207 0.00054895 0.00362004 0.16057352 0.38826706 1.26429018
Au 18.30915324 6.25318720 7.62427806 -0.00109509 0.00030839 -0.00002591 -0.04310905 -0.22652040 -0.69499629
Au 20.76022689 5.54069368 7.61759069 -0.00130698 -0.00085733 -0.00359412 -0.11746447 -0.16174667 -0.56929389
3
Time=1000.00000000 pbc="T T T" Lattice="23.91741943 -0.00000074 0.00000214 -0.00000037 11.95871544 -0.00000316 0.00000107 -0.00000316 11.95871735" energy=-5.26842499 virial="-0.99917351 -0.25058658 -1.57048924 -0.25058658 0.44433848 1.08092123 -1.57048924 1.08092123 1.81991940" stress="-0.00026944 -0.00007326 -0.00045915 -0.00007326 0.00015258 0.00031602 -0.00045915 0.00031602 0.00055474" Properties=species:S:1:pos:R:3:vel:R:3:forces:R:3
Au 19.08941400 5.26022007 5.39432122 0.00033562 0.00004726 0.00042021 0.74677550 -0.51517767 -0.86885406
Au 18.22358553 6.23230315 7.49145848 0.00261287 -0.00075932 -0.00000653 -0.12126172 0.44088432 1.17983756
Au 20.85462760 5.47238235 7.49849032 -0.00294850 0.00071206 -0.00041368 -0.62551378 0.07429334 -0.31098350
3
Time=1250.00000000 pbc="T T T" Lattice="23.91741943 -0.00000074 0.00000214 -0.00000037 11.95871544 -0.00000316 0.00000107 -0.00000316 11.95871735" energy=-5.13373566 virial="0.81694739 -0.07453735 0.47156205 -0.07453735 -0.04461890 -0.19254243 0.47156205 -0.19254243 -0.16257011" stress="0.00026152 -0.00002179 0.00013787 -0.00002179 0.00000963 -0.00005629 0.00013787 -0.00005629 -0.00002485" Properties=species:S:1:pos:R:3:vel:R:3:forces:R:3
Au 19.36762039 5.09342431 5.14370934 -0.00069365 -0.00045948 -0.00192049 -0.26606382 0.08446585 0.02144328
Au 18.23685420 6.36547903 7.88988682 0.00097204 -0.00024602 0.00010361 -0.21444348 -0.01136755 -0.21372933
Au 20.56315254 5.50600222 7.35067386 -0.00027839 0.00070550 0.00181689 0.48050730 -0.07309831 0.19228605
3
Time=1500.00000000 pbc="T T T" Lattice="23.91741943 -0.00000074 0.00000214 -0.00000037 11.95871544 -0.00000316 0.00000107 -0.00000316 11.95871735" energy=-5.39686584 virial="-0.67998395 0.07982493 -0.34079014 0.07982493 0.05384068 0.22381282 -0.34079014 0.22381282 0.36367752" stress="-0.00017613 0.00002334 -0.00009963 0.00002334 0.00003842 0.00006543 -0.00009963 0.00006543 0.00012900" Properties=species:S:1:pos:R:3:vel:R:3:forces:R:3
Au 19.14303324 5.23896903 5.37770293 -0.00130186 0.00034527 -0.00009287 0.17432935 -0.10621835 -0.16198437
Au 18.22003150 6.25888391 7.56575641 0.00011665 -0.00037259 -0.00098515 0.15102573 0.03739941 0.23599326
Au 20.80456239 5.46705262 7.44081068 0.00118521 0.00002732 0.00107802 -0.32535508 0.06881893 -0.07400890
3
Time=1750.00000000 pbc="T T T" Lattice="23.91741943 -0.00000074 0.00000214 -0.00000037 11.95871544 -0.00000316 0.00000107 -0.00000316 11.95871735" energy=-5.38260651 virial="-0.23035737 0.26265928 0.56967814 0.26265928 -0.20129612 -0.36403094 0.56967814 -0.36403094 -0.57855950" stress="-0.00004467 0.00007679 0.00016655 0.00007679 -0.00003618 -0.00010643 0.00016655 -0.00010643 -0.00014647" Properties=species:S:1:pos:R:3:vel:R:3:forces:R:3
Au 19.18774076 5.20650834 5.32098071 0.00093358 0.00032419 0.00172926 -0.24194846 0.14870935 0.22856853
Au 18.24021194 6.29060608 7.67500143 -0.00138068 0.00035082 -0.00014316 0.24239024 -0.19742098 -0.36984005
Au 20.73967442 5.46779114 7.38828789 0.00044710 -0.00067501 -0.00158610 -0.00044179 0.04871163 0.14127152
3
Time=2000.00000000 pbc="T T T" Lattice="23.91741943 -0.00000074 0.00000214 -0.00000037 11.95871544 -0.00000316 0.00000107 -0.00000316 11.95871735" energy=-5.36190796 virial="1.54807491 -0.60290398 -0.44882754 -0.60290398 0.15108768 -0.06863064 -0.44882754 -0.06863064 -0.57771442" stress="0.00047527 -0.00017626 -0.00013122 -0.00017626 0.00006685 -0.00002006 -0.00013122 -0.00002006 -0.00014623" Properties=species:S:1:pos:R:3:vel:R:3:forces:R:3
Au 19.09082980 5.22792544 5.30160641 0.00098093 -0.00032838 -0.00012842 0.14528275 0.05046889 0.26915828
Au 18.33758990 6.24802115 7.63321765 0.00199207 -0.00029761 0.00081298 -0.74431326 0.21640090 0.00214567
Au 20.73920742 5.48895897 7.44944597 -0.00297300 0.00062600 -0.00068457 0.59903051 -0.26686979 -0.27130395
3
Time=2250.00000000 pbc="T T T" Lattice="23.91741943 -0.00000074 0.00000214 -0.00000037 11.95871544 -0.00000316 0.00000107 -0.00000316 11.95871735" energy=-5.35110474 virial="0.54969934 -0.29247571 -0.38732535 -0.29247571 0.39546738 0.90352323 -0.38732535 0.90352323 2.30093705" stress="0.00018338 -0.00008551 -0.00011324 -0.00008551 0.00013829 0.00026415 -0.00011324 0.00026415 0.00069537" Properties=species:S:1:pos:R:3:vel:R:3:forces:R:3
Au 19.08638112 5.27085152 5.42267805 -0.00111997 0.00016615 -0.00046049 0.16294185 -0.41944921 -1.08239372
Au 18.27525776 6.24992342 7.58623396 0.00125157 -0.00058808 -0.00065554 -0.32792718 0.40058139 0.88852498
Au 20.80598825 5.44413062 7.37535802 -0.00013160 0.00042194 0.00111603 0.16498533 0.01886781 0.19386873
3
Time=2500.00000000 pbc="T T T" Lattice="23.91741943 -0.00000074 0.00000214 -0.00000037 11.95871544 -0.00000316 0.00000107 -0.00000316 11.95871735" energy=-5.22601318 virial="-0.69107260 0.82671622 1.82168400 0.82671622 -0.42289004 -0.53315090 1.82168400 -0.53315090 -0.01547983" stress="-0.00017937 0.00024170 0.00053259 0.00024170 -0.00010096 -0.00015587 0.00053259 -0.00015587 0.00001815" Properties=species:S:1:pos:R:3:vel:R:3:forces:R:3
Au 19.20686717 5.19938642 5.31638329 -0.00114803 0.00004753 -0.00082905 -0.73953811 0.16056244 -0.15619713
Au 18.21038508 6.33957611 7.79227135 -0.00170046 0.00048037 -0.00003584 0.72148141 -0.42305115 -0.62228303
Au 20.75037488 5.42594303 7.27561539 0.00284849 -0.00052790 0.00086489 0.01805670 0.26248871 0.77848016
3
Time=2750.00000000 pbc="T T T" Lattice="23.91741943 -0.00000074 0.00000214 -0.00000037 11.95871544 -0.00000316 0.00000107 -0.00000316 11.95871735" energy=-5.30331421 virial="-1.55657864 0.35444130 -0.28081298 0.35444130 -0.36511019 -0.76304449 -0.28081298 -0.76304449 -2.45538218" stress="-0.00043241 0.00010362 -0.00008210 0.00010362 -0.00008407 -0.00022308 -0.00008210 -0.00022308 -0.00069518" Properties=species:S:1:pos:R:3:vel:R:3:forces:R:3
Au 19.07002065 5.21739999 5.25346463 0.00114122 -0.00059379 -0.00076513 0.20406984 0.30179370 1.04949336
Au 18.29667555 6.29292407 7.72932088 -0.00076391 0.00077424 0.00160774 0.48052289 -0.35013167 -0.61326248
Au 20.80093093 5.45458150 7.40148451 -0.00037731 -0.00018045 -0.00084261 -0.68459273 0.04833797 -0.43623089
3
Time=3000.00000000 pbc="T T T" Lattice="23.91741943 -0.00000074 0.00000214 -0.00000037 11.95871544 -0.00000316 0.00000107 -0.00000316 11.95871735" energy=-5.27307892 virial="-0.73529557 -0.22013273 -1.25961481 -0.22013273 0.34221610 0.80963707 -1.25961481 0.80963707 1.29302366" stress="-0.00019230 -0.00006436 -0.00036826 -0.00006436 0.00012272 0.00023670 -0.00036826 0.00023670 0.00040070" Properties=species:S:1:pos:R:3:vel:R:3:forces:R:3
Au 18.95521307 5.28114932 5.34210234 -0.00072644 0.00065054 0.00127958 0.58426187 -0.36360357 -0.56503932
Au 18.34338978 6.22426758 7.56904792 0.00105635 -0.00086411 -0.00162264 -0.15159412 0.36268166 0.92689315
Au 20.86902428 5.45948866 7.47311977 -0.00032990 0.00021357 0.00034307 -0.43266775 0.00092191 -0.36185383
3
Time=3250.00000000 pbc="T T T" Lattice="23.91741943 -0.00000074 0.00000214 -0.00000037 11.95871544 -0.00000316 0.00000107 -0.00000316 11.95871735" energy=-5.32105255 virial="2.07557090 -0.10222185 1.45146700 -0.10222185 0.11611740 0.25153092 1.45146700 0.25153092 1.95431531" stress="0.00062949 -0.00002989 0.00042435 -0.00002989 0.00005662 0.00007354 0.00042435 0.00007354 0.00059404" Properties=species:S:1:pos:R:3:vel:R:3:forces:R:3
Au 19.12551279 5.24981107 5.39443770 -0.00216247 0.00090326 0.00080451 -0.83727814 -0.10760964 -1.01834132
Au 18.30996480 6.28179710 7.70821044 0.00089607 -0.00107684 -0.00237615 -0.30153318 0.11357988 0.07622771
Au 20.73214953 5.43329739 7.28162189 0.00126640 0.00017358 0.00157163 1.13881132 -0.00597024 0.94211361
3
Time=3500.00000000 pbc="T T T" Lattice="23.91741943 -0.00000074 0.00000214 -0.00000037 11.95871544 -0.00000316 0.00000107 -0.00000316 11.95871735" energy=-5.19081116 virial="2.35724255 -0.98048853 -0.86524056 -0.98048853 0.32311839 0.11354946 -0.86524056 0.11354946 -0.39877753" stress="0.00071184 -0.00028665 -0.00025296 -0.00028665 0.00011714 0.00003320 -0.00025296 0.00003320 -0.00009391" Properties=species:S:1:pos:R:3:vel:R:3:forces:R:3
Au 18.88727942 5.26992155 5.25215918 0.00116021 -0.00006591 0.00078556 0.32048122 -0.02846353 0.18723829
Au 18.46041037 6.20860748 7.62220757 -0.00264659 0.00097052 0.00059297 -1.26153389 0.43885866 0.21333638
Au 20.81993734 5.48637653 7.50990328 0.00148638 -0.00090461 -0.00137852 0.94105267 -0.41039514 -0.40057467
3
Time=3750.00000000 pbc="T T T" Lattice="23.91741943 -0.00000074 0.00000214 -0.00000037 11.95871544 -0.00000316 0.00000107 -0.00000316 11.95871735" energy=-5.26032257 virial="-2.50215703 0.58087042 -0.41882537 0.58087042 -0.43016644 -0.76160896 -0.41882537 -0.76160896 -2.56775826" stress="-0.00070885 0.00016982 -0.00012245 0.00016982 -0.00010309 -0.00022266 -0.00012245 -0.00022266 -0.00072803" Properties=species:S:1:pos:R:3:vel:R:3:forces:R:3
Au 19.01231789 5.24044190 5.27170476 -0.00234715 0.00021537 -0.00135169 0.30406228 0.29464328 1.11305072
Au 18.28628420 6.28890925 7.70913972 0.00345261 -0.00147291 -0.00137369 0.75021171 -0.43672083 -0.63799815
Au 20.86902504 5.43555442 7.40342555 -0.00110546 0.00125754 0.00272538 -1.05427399 0.14207755 -0.47505257
3
Time=4000.00000000 pbc="T T T" Lattice="23.91741943 -0.00000074 0.00000214 -0.00000037 11.95871544 -0.00000316 0.00000107 -0.00000316 11.95871735" energy=-5.34797668 virial="1.54178768 -0.03639537 1.19309632 -0.03639537 0.11126545 0.29295439 1.19309632 0.29295439 1.85724393" stress="0.00047343 -0.00001064 0.00034881 -0.00001064 0.00005520 0.00008565 0.00034881 0.00008565 0.00056566" Properties=species:S:1:pos:R:3:vel:R:3:forces:R:3
Au 19.12783245 5.25241650 5.40371741 0.00188794 -0.00037250 0.00050678 -0.66581399 -0.13387633 -0.95032833
Au 18.28864658 6.27773368 7.67885963 0.00057372 0.00018895 0.00103358 -0.18719232 0.10303300 0.14196400
Au 20.75114810 5.43475538 7.30169300 -0.00246166 0.00018355 -0.00154036 0.85300631 0.03084333 0.80836432
3
Time=4250.00000000 pbc="T T T" Lattice="23.91741943 -0.00000074 0.00000214 -0.00000037 11.95871544 -0.00000316 0.00000107 -0.00000316 11.95871735" energy=-5.37435913 virial="-0.85105489 0.00964096 -0.68894763 0.00964096 0.14263457 0.42301776 -0.68894763 0.42301776 0.65005486" stress="-0.00022614 0.00000282 -0.00020142 0.00000282 0.00006437 0.00012367 -0.00020142 0.00012367 0.00021272" Properties=species:S:1:pos:R:3:vel:R:3:forces:R:3
Au 19.04562227 5.26906368 5.38277300 0.00054880 -0.00009593 0.00018284 0.35099656 -0.19621770 -0.27505283
Au 18.27775664 6.25543304 7.60501993 -0.00212163 0.00077762 0.00047528 0.08562015 0.13375508 0.46119955
Au 20.84424822 5.44040884 7.39647710 0.00157283 -0.00068169 -0.00065813 -0.43661671 0.06246262 -0.18614672
3
Time=4500.00000000 pbc="T T T" Lattice="23.91741943 -0.00000074 0.00000214 -0.00000037 11.95871544 -0.00000316 0.00000107 -0.00000316 11.95871735" energy=-5.23496246 virial="1.61831005 -0.71044243 -0.70354043 -0.71044243 0.10031889 -0.30665589 -0.70354043 -0.30665589 -1.48485200" stress="0.00049580 -0.00020770 -0.00020569 -0.00020770 0.00005200 -0.00008965 -0.00020569 -0.00008965 -0.00041144" Properties=species:S:1:pos:R:3:vel:R:3:forces:R:3
Au 18.98028113 5.23502714 5.22852004 -0.00168268 0.00013764 -0.00101840 0.27082637 0.14054470 0.63704463
Au 18.40012521 6.22602393 7.62287157 0.00010642 -0.00032589 -0.00085616 -0.88294615 0.19123097 -0.18749179
Au 20.78722079 5.50385449 7.53287842 0.00157625 0.00018825 0.00187456 0.61211978 -0.33177567 -0.44955284
3
Time=4750.00000000 pbc="T T T" Lattice="23.91741943 -0.00000074 0.00000214 -0.00000037 11.95871544 -0.00000316 0.00000107 -0.00000316 11.95871735" energy=-5.35396576 virial="1.96731082 -0.42106670 0.42950794 -0.42106670 0.09466797 -0.07867628 0.42950794 -0.07867628 0.13239867" stress="0.00059784 -0.00012310 0.00012557 -0.00012310 0.00005035 -0.00002300 0.00012557 -0.00002300 0.00006138" Properties=species:S:1:pos:R:3:vel:R:3:forces:R:3
Au 19.15393400 5.21650911 5.31858194 0.00230129 -0.00030325 0.00104382 -0.30967026 0.06042325 -0.08467769
Au 18.31598500 6.27460830 7.69703930 -0.00051094 0.00061690 0.00138612 -0.62528253 0.13762592 -0.12544897
Au 20.69770814 5.47378816 7.36864879 -0.00179035 -0.00031365 -0.00242994 0.93495279 -0.19804917 0.21012666
3
Time=5000.00000000 pbc="T T T" Lattice="23.91741943 -0.00000074 0.00000214 -0.00000037 11.95871544 -0.00000316 0.00000107 -0.00000316 11.95871735" energy=-5.18921661 virial="0.11985619 -0.54969175 -1.50638003 -0.54969175 0.59297680 1.27125063 -1.50638003 1.27125063 2.44942891" stress="0.00005772 -0.00016071 -0.00044040 -0.00016071 0.00019604 0.00037166 -0.00044040 0.00037166 0.00073879" Properties=species:S:1:pos:R:3:vel:R:3:forces:R:3
Au 18.96067561 5.27736822 5.33010335 -0.00031316 -0.00051842 -0.00179996 0.68791655 -0.58234632 -1.12385757
Au 18.35679973 6.19878628 7.51608462 -0.00229111 0.00101869 0.00108428 -0.56937733 0.66176826 1.45582417
Au 20.85015179 5.48875106 7.53808206 0.00260428 -0.00050026 0.00071568 -0.11853922 -0.07942194 -0.33196660
3
Time=5250.00000000 pbc="T T T" Lattice="23.91741943 -0.00000074 0.00000214 -0.00000037 11.95871544 -0.00000316 0.00000107 -0.00000316 11.95871735" energy=-5.27309418 virial="-2.22134983 0.77409829 0.40139314 0.77409829 -0.49134135 -0.78952596 0.40139314 -0.78952596 -1.97720360" stress="-0.00062676 0.00022631 0.00011735 0.00022631 -0.00012097 -0.00023083 0.00011735 -0.00023083 -0.00055538" Properties=species:S:1:pos:R:3:vel:R:3:forces:R:3
Au 19.15399451 5.21328957 5.30200412 -0.00097368 0.00010613 -0.00051467 -0.03803487 0.29706076 0.83895119
Au 18.19367016 6.31585988 7.72694823 -0.00003360 -0.00013857 -0.00042307 0.86993924 -0.48318764 -0.68501855
Au 20.81996247 5.43575611 7.35531768 0.00100728 0.00003244 0.00093774 -0.83190437 0.18612688 -0.15393264
3
Time=5500.00000000 pbc="T T T" Lattice="23.91741943 -0.00000074 0.00000214 -0.00000037 11.95871544 -0.00000316 0.00000107 -0.00000316 11.95871735" energy=-5.28627777 virial="-1.79159592 0.44094991 -0.20852048 0.44094991 -0.40240243 -0.81317905 -0.20852048 -0.81317905 -2.56739175" stress="-0.00050112 0.00012892 -0.00006096 0.00012892 -0.00009497 -0.00023774 -0.00006096 -0.00023774 -0.00072793" Properties=species:S:1:pos:R:3:vel:R:3:forces:R:3
Au 19.10211974 5.21046296 5.24587093 0.00166963 0.00024370 0.00208738 0.18192235 0.31889518 1.09099136
Au 18.26950460 6.29178886 7.72709706 0.00079040 -0.00025625 -0.00003294 0.58715288 -0.38833237 -0.64891846
Au 20.79600279 5.46265373 7.41130204 -0.00246003 0.00001255 -0.00205444 -0.76907523 0.06943719 -0.44207290
3
Time=5750.00000000 pbc="T T T" Lattice="23.91741943 -0.00000074 0.00000214 -0.00000037 11.95871544 -0.00000316 0.00000107 -0.00000316 11.95871735" energy=-5.33835602 virial="1.16476179 -0.60625897 -0.81562923 -0.60625897 0.47865700 0.90710437 -0.81562923 0.90710437 1.99894890" stress="0.00036320 -0.00017725 -0.00023846 -0.00017725 0.00016261 0.00026520 -0.00023846 0.00026520 0.00060709" Properties=species:S:1:pos:R:3:vel:R:3:forces:R:3
Au 19.04105911 5.27702232 5.38413957 0.00102047 -0.00043556 -0.00048128 0.33688810 -0.39917986 -0.89816277
Au 18.33392834 6.22472622 7.59432726 0.00153358 -0.00008765 0.00110974 -0.71372690 0.53095075 0.97157956
Au 20.79263969 5.46315702 7.40580320 -0.00255405 0.00052321 -0.00062846 0.37683880 -0.13177089 -0.07341679
3
Time=6000.00000000 pbc="T T T" Lattice="23.91741943 -0.00000074 0.00000214 -0.00000037 11.95871544 -0.00000316 0.00000107 -0.00000316 11.95871735" energy=-5.27024078 virial="2.56944413 -0.78182573 -0.20088492 -0.78182573 0.12708674 -0.27131270 -0.20088492 -0.27131270 -0.98166837" stress="0.00077387 -0.00022857 -0.00005873 -0.00022857 0.00005983 -0.00007932 -0.00005873 -0.00007932 -0.00026433" Properties=species:S:1:pos:R:3:vel:R:3:forces:R:3
Au 19.13206750 5.21149000 5.24960109 -0.00215181 0.00043163 -0.00062627 -0.10565006 0.17149139 0.42631887
Au 18.35886695 6.26723212 7.77162538 0.00005784 -0.00056273 -0.00140976 -1.03815153 0.22302616 -0.19743415
Au 20.67669268 5.48618344 7.36304356 0.00209397 0.00013109 0.00203603 1.14380159 -0.39451754 -0.22888472
3
Time=6250.00000000 pbc="T T T" Lattice="23.91741943 -0.00000074 0.00000214 -0.00000037 11.95871544 -0.00000316 0.00000107 -0.00000316 11.95871735" energy=-5.30390167 virial="0.84814706 0.17807793 1.26122172 0.17807793 -0.13297913 -0.26671826 1.26122172 -0.26671826 0.21719140" stress="0.00027064 0.00005206 0.00036873 0.00005206 -0.00001620 -0.00007798 0.00036873 -0.00007798 0.00008617" Properties=species:S:1:pos:R:3:vel:R:3:forces:R:3
Au 19.17808955 5.23101514 5.29643487 0.00191671 -0.00075008 -0.00094942 -0.62240688 0.09897633 -0.20903945
Au 18.28389635 6.27189837 7.79988924 0.00031697 0.00054910 0.00231756 0.04237092 -0.13596370 -0.38893575
Au 20.70564124 5.46199205 7.28794593 -0.00223368 0.00020098 -0.00136815 0.58003596 0.03698737 0.59797520
3
Time=6500.00000000 pbc="T T T" Lattice="23.91741943 -0.00000074 0.00000214 -0.00000037 11.95871544 -0.00000316 0.00000107 -0.00000316 11.95871735" energy=-5.29523468 virial="0.26077933 -0.34167032 -0.94918843 -0.34167032 0.42162520 1.15509206 -0.94918843 1.15509206 3.15378137" stress="0.00009892 -0.00009989 -0.00027750 -0.00009989 0.00014594 0.00033770 -0.00027750 0.00033770 0.00094471" Properties=species:S:1:pos:R:3:vel:R:3:forces:R:3
Au 19.00468428 5.34455495 5.42506132 -0.00092003 0.00097857 0.00168702 0.43115044 -0.52325514 -1.42770450
Au 18.30491833 6.16327223 7.63839378 -0.00174543 -0.00027055 -0.00107896 -0.41512092 0.51366453 1.40817119
Au 20.85802453 5.45707837 7.32081494 0.00266546 -0.00070803 -0.00060806 -0.01602952 0.00959060 0.01953330
3
Time=6750.00000000 pbc="T T T" Lattice="23.91741943 -0.00000074 0.00000214 -0.00000037 11.95871544 -0.00000316 0.00000107 -0.00000316 11.95871735" energy=-5.38224792 virial="0.80690365 -0.32513095 -0.58679042 -0.32513095 0.06871845 -0.00771063 -0.58679042 -0.00771063 -0.53026252" stress="0.00025858 -0.00009505 -0.00017155 -0.00009505 0.00004276 -0.00000225 -0.00017155 -0.00000225 -0.00013235" Properties=species:S:1:pos:R:3:vel:R:3:forces:R:3
Au 18.97428652 5.36475348 5.30363218 -0.00171140 0.00008427 -0.00156365 0.18375201 0.02961290 0.27265833
Au 18.38168315 6.12337085 7.77216051 0.00086133 -0.00037298 -0.00010017 -0.47100263 0.11140902 0.03531556
Au 20.81165748 5.47678123 7.30847737 0.00085007 0.00028870 0.00166382 0.28725061 -0.14102192 -0.30797389
3
Time=7000.00000000 pbc="T T T" Lattice="23.91741943 -0.00000074 0.00000214 -0.00000037 11.95871544 -0.00000316 0.00000107 -0.00000316 11.95871735" energy=-5.39907074 virial="-0.57150412 0.02930891 -0.37083001 0.02930891 -0.02606773 -0.10042976 -0.37083001 -0.10042976 -0.82144102" stress="-0.00014441 0.00000857 -0.00010842 0.00000857 0.00001505 -0.00002936 -0.00010842 -0.00002936 -0.00021748" Properties=species:S:1:pos:R:3:vel:R:3:forces:R:3
Au 18.92589617 5.43691054 5.31826809 0.00103698 -0.00002276 0.00018754 0.21495260 0.03899655 0.38270218
Au 18.37576626 6.05783262 7.84339867 -0.00033301 0.00010891 0.00104494 0.06203575 -0.04215122 -0.14924050
Au 20.86596473 5.47016239 7.22260332 -0.00070397 -0.00008616 -0.00123247 -0.27698835 0.00315467 -0.23346167
3
Time=7250.00000000 pbc="T T T" Lattice="23.91741943 -0.00000074 0.00000214 -0.00000037 11.95871544 -0.00000316 0.00000107 -0.00000316 11.95871735" energy=-5.20078278 virial="1.87424750 -0.41717632 -1.37667583 -0.41717632 0.11032174 0.47284379 -1.37667583 0.47284379 2.59693009" stress="0.00057063 -0.00012197 -0.00040248 -0.00012197 0.00005493 0.00013824 -0.00040248 0.00013824 0.00078191" Properties=species:S:1:pos:R:3:vel:R:3:forces:R:3
Au 18.67281550 5.61020697 5.37504950 -0.00141390 0.00096465 0.00054099 0.33960408 -0.14370628 -0.89849554
Au 18.56822906 5.88503100 7.84873354 0.00115425 -0.00104723 -0.00032960 -1.11927065 0.31422633 1.44239417
Au 20.92658262 5.46966758 7.16048707 0.00025965 0.00008258 -0.00021139 0.77966657 -0.17052006 -0.54389863
3
Time=7500.00000000 pbc="T T T" Lattice="23.91741943 -0.00000074 0.00000214 -0.00000037 11.95871544 -0.00000316 0.00000107 -0.00000316 11.95871735" energy=-5.34144592 virial="-1.06366340 0.12130106 0.74859341 0.12130106 -0.01441361 -0.05810603 0.74859341 -0.05810603 -1.80770751" stress="-0.00028830 0.00003546 0.00021886 0.00003546 0.00001846 -0.00001699 0.00021886 -0.00001699 -0.00050583" Properties=species:S:1:pos:R:3:vel:R:3:forces:R:3
Au 18.70224196 5.77265537 5.42984599 -0.00274868 0.00129764 -0.00156356 -0.04331837 -0.00530608 0.51184606
Au 18.54878599 5.73386964 8.18213394 0.00020464 -0.00088040 0.00176818 0.48972854 -0.04626695 -0.79482765
Au 20.91659924 5.45838054 6.77229023 0.00254404 -0.00041724 -0.00020462 -0.44641017 0.05157303 0.28298159
3
Time=7750.00000000 pbc="T T T" Lattice="23.91741943 -0.00000074 0.00000214 -0.00000037 11.95871544 -0.00000316 0.00000107 -0.00000316 11.95871735" energy=-5.35287476 virial="-1.55931815 0.17071912 0.40982079 0.17071912 -0.07447814 0.26076532 0.40982079 0.26076532 -1.78214083" stress="-0.00043321 0.00004991 0.00011981 0.00004991 0.00000090 0.00007624 0.00011981 0.00007624 -0.00049835" Properties=species:S:1:pos:R:3:vel:R:3:forces:R:3
Au 18.48721214 6.01366249 5.60772107 0.00083433 0.00045463 0.00111169 0.29057269 -0.13881651 0.50985734
Au 18.75359102 5.48901959 8.25222023 0.00030745 -0.00073250 0.00053742 0.39132184 0.07727625 -0.76092845
Au 20.92682406 5.46222347 6.52432890 -0.00114178 0.00027787 -0.00164912 -0.68189453 0.06154026 0.25107111
3
Time=8000.00000000 pbc="T T T" Lattice="23.91741943 -0.00000074 0.00000214 -0.00000037 11.95871544 -0.00000316 0.00000107 -0.00000316 11.95871735" energy=-5.31675720 virial="0.28246815 0.28007499 -1.07611340 0.28007499 0.01949369 -0.26615291 -1.07611340 -0.26615291 1.61580290" stress="0.00010526 0.00008188 -0.00031461 0.00008188 0.00002837 -0.00007781 -0.00031461 -0.00007781 0.00049507" Properties=species:S:1:pos:R:3:vel:R:3:forces:R:3
Au 18.25021231 6.23031321 5.84680634 -0.00012555 0.00086168 0.00253371 0.26981959 0.00175638 -0.20360822
Au 19.03894481 5.30888285 8.12539566 0.00060691 -0.00115313 -0.00032791 -0.53906492 -0.15476342 0.87590439
Au 20.87847012 5.42570949 6.41206825 -0.00048136 0.00029145 -0.00220580 0.26924532 0.15300703 -0.67229617
3
Time=8250.00000000 pbc="T T T" Lattice="23.91741943 -0.00000074 0.00000214 -0.00000037 11.95871544 -0.00000316 0.00000107 -0.00000316 11.95871735" energy=-5.38504791 virial="0.13877023 0.01715071 -0.15278820 0.01715071 -0.21962171 0.47554970 -0.15278820 0.47554970 -0.93425150" stress="0.00006324 0.00000501 -0.00004467 0.00000501 -0.00004153 0.00013903 -0.00004467 0.00013903 -0.00025046" Properties=species:S:1:pos:R:3:vel:R:3:forces:R:3
Au 18.27112028 6.41114805 6.03155703 -0.00154509 0.00122821 0.00108635 -0.01304238 -0.14084591 0.32482007
Au 19.19956267 5.07228344 8.25055362 0.00124473 -0.00070225 -0.00060906 -0.07154601 0.21672275 -0.42418588
Au 20.69694432 5.48147406 6.10215965 0.00030036 -0.00052596 -0.00047729 0.08458839 -0.07587684 0.09936581
3
Time=8500.00000000 pbc="T T T" Lattice="23.91741943 -0.00000074 0.00000214 -0.00000037 11.95871544 -0.00000316 0.00000107 -0.00000316 11.95871735" energy=-5.38780975 virial="-0.04963645 -0.14625340 0.31170210 -0.14625340 -0.10179961 0.33416917 0.31170210 0.33416917 -0.92025857" stress="0.00000816 -0.00004276 0.00009113 -0.00004276 -0.00000709 0.00009770 0.00009113 0.00009770 -0.00024637" Properties=species:S:1:pos:R:3:vel:R:3:forces:R:3
Au 18.24907157 6.54001438 6.41999237 0.00122675 0.00045252 0.00067292 -0.05475032 -0.01210467 0.07893615
Au 19.35066467 4.89992825 8.17550381 0.00120433 -0.00128407 0.00011640 0.14507783 0.14321243 -0.40644929
Au 20.56789107 5.52496291 5.78877417 -0.00243107 0.00083154 -0.00078932 -0.09032751 -0.13110776 0.32751314
3
Time=8750.00000000 pbc="T T T" Lattice="23.91741943 -0.00000074 0.00000214 -0.00000037 11.95871544 -0.00000316 0.00000107 -0.00000316 11.95871735" energy=-5.37796783 virial="-0.15835205 -0.11932201 0.44467716 -0.11932201 0.49998824 -0.65676758 0.44467716 -0.65676758 0.41893390" stress="-0.00002362 -0.00003488 0.00013001 -0.00003488 0.00016885 -0.00019201 0.00013001 -0.00019201 0.00014515" Properties=species:S:1:pos:R:3:vel:R:3:forces:R:3
Au 18.23389832 6.67495269 6.86035021 0.00097939 -0.00029215 0.00175605 0.00913160 0.19411115 -0.34044694
Au 19.58405877 4.78697189 7.95388007 0.00015870 -0.00057253 0.00033828 0.18159557 -0.38057541 0.36001411
Au 20.34967023 5.50298095 5.57004013 -0.00113809 0.00086468 -0.00209433 -0.19072717 0.18646427 -0.01956718
3
Time=9000.00000000 pbc="T T T" Lattice="23.91741943 -0.00000074 0.00000214 -0.00000037 11.95871544 -0.00000316 0.00000107 -0.00000316 11.95871735" energy=-5.37051392 virial="-0.62031964 0.72024720 0.15614026 0.72024720 -0.71753886 -0.42308249 0.15614026 -0.42308249 0.45308008" stress="-0.00015868 0.00021057 0.00004565 0.00021057 -0.00018710 -0.00012369 0.00004565 -0.00012369 0.00015514" Properties=species:S:1:pos:R:3:vel:R:3:forces:R:3
Au 18.34642237 6.80259531 7.18582019 0.00025508 0.00021379 0.00235811 0.39949988 -0.45461977 -0.11936557
Au 19.84149702 4.58923635 7.78176307 0.00072015 0.00016464 -0.00156116 -0.23281631 0.16117911 0.28085934
Au 19.97970797 5.57307387 5.41668721 -0.00097522 -0.00037843 -0.00079696 -0.16668358 0.29344066 -0.16149376
3
Time=9250.00000000 pbc="T T T" Lattice="23.91741943 -0.00000074 0.00000214 -0.00000037 11.95871544 -0.00000316 0.00000107 -0.00000316 11.95871735" energy=-5.34643555 virial="-0.11826938 0.30292078 -0.49309851 0.30292078 -0.68711851 0.89573137 -0.49309851 0.89573137 -0.53625842" stress="-0.00001190 0.00008856 -0.00014416 0.00008856 -0.00017821 0.00026188 -0.00014416 0.00026188 -0.00013411" Properties=species:S:1:pos:R:3:vel:R:3:forces:R:3
Au 18.60073937 6.72514337 7.43569043 0.00045577 0.00063460 0.00107764 0.01975347 -0.10060570 0.28930649
Au 20.01076483 4.47027643 7.70084663 0.00106855 -0.00071535 -0.00153080 -0.21862765 0.45487194 -0.47663864
Au 19.55612320 5.76948572 5.24773347 -0.00152431 0.00008075 0.00045316 0.19887417 -0.35426624 0.18733215
3
Time=9500.00000000 pbc="T T T" Lattice="23.91741943 -0.00000074 0.00000214 -0.00000037 11.95871544 -0.00000316 0.00000107 -0.00000316 11.95871735" energy=-5.40147400 virial="0.22777513 -0.38796120 -0.17953834 -0.38796120 0.65171392 0.25590444 -0.17953834 0.25590444 -0.13247499" stress="0.00008927 -0.00011342 -0.00005249 -0.00011342 0.00021321 0.00007482 -0.00005249 0.00007482 -0.00001606" Properties=species:S:1:pos:R:3:vel:R:3:forces:R:3
Au 18.86241705 6.65482486 7.77332622 0.00114050 -0.00124689 -0.00058712 -0.20602937 0.33407860 0.06990556
Au 20.19514806 4.49568972 7.33157470 0.00012242 0.00046205 -0.00031788 0.16289306 -0.28129410 -0.14950575
Au 19.11006232 5.81439094 5.27936969 -0.00126292 0.00078484 0.00090500 0.04313631 -0.05278450 0.07960019
3
Time=9750.00000000 pbc="T T T" Lattice="23.91741943 -0.00000074 0.00000214 -0.00000037 11.95871544 -0.00000316 0.00000107 -0.00000316 11.95871735" energy=-5.38032532 virial="0.69512754 -0.71057404 0.62092276 -0.71057404 0.81482082 -0.42294299 0.62092276 -0.42294299 1.06166347" stress="0.00022590 -0.00020774 0.00018153 -0.00020774 0.00026089 -0.00012365 0.00018153 -0.00012365 0.00033306" Properties=species:S:1:pos:R:3:vel:R:3:forces:R:3
Au 19.03568777 6.62326389 7.93201874 0.00113453 -0.00049551 0.00122777 -0.06642873 0.16014592 0.16150026
Au 20.28693301 4.49990786 7.02830927 0.00067631 0.00006348 -0.00056237 0.49086712 -0.51397274 0.40926343
Au 18.84500667 5.84173377 5.42394264 -0.00181084 0.00043203 -0.00066539 -0.42443840 0.35382682 -0.57076369
3