2
Time=250.00000000 pbc="T T T" Lattice="47.83483887 -0.00000150 0.00000430 -0.00000037 11.95871544 -0.00000316 0.00000107 -0.00000316 11.95871735" energy=-0.40063477 virial="0.00000000 0.00000000 0.00000000 0.00000000 0.00000000 0.00000000 0.00000000 0.00000000 0.00000000" stress="0.00000756 0.00000000 0.00000000 0.00000000 0.00000756 0.00000000 0.00000000 0.00000000 0.00000756" Properties=species:S:1:pos:R:3:vel:R:3:forces:R:3
Au 4.72236429 5.82766473 7.14862295 0.00199436 -0.00025525 -0.00017906 0.00000000 0.00000000 0.00000000
Au 27.72458302 5.94479516 7.23079524 -0.00199436 0.00025525 0.00017906 0.00000000 0.00000000 0.00000000
2
Time=500.00000000 pbc="T T T" Lattice="47.83483887 -0.00000150 0.00000430 -0.00000037 11.95871544 -0.00000316 0.00000107 -0.00000316 11.95871735" energy=-0.40063477 virial="0.00000000 0.00000000 0.00000000 0.00000000 0.00000000 0.00000000 0.00000000 0.00000000 0.00000000" stress="0.00000756 0.00000000 0.00000000 0.00000000 0.00000756 0.00000000 0.00000000 0.00000000 0.00000756" Properties=species:S:1:pos:R:3:vel:R:3:forces:R:3
Au 5.23163664 5.76248594 7.10289857 0.00149821 -0.00019175 -0.00013452 0.00000000 0.00000000 0.00000000
Au 27.21531067 6.00997395 7.27651962 -0.00149821 0.00019175 0.00013452 0.00000000 0.00000000 0.00000000
2
Time=750.00000000 pbc="T T T" Lattice="47.83483887 -0.00000150 0.00000430 -0.00000037 11.95871544 -0.00000316 0.00000107 -0.00000316 11.95871735" energy=-0.40063477 virial="0.00000000 0.00000000 0.00000000 0.00000000 0.00000000 0.00000000 0.00000000 0.00000000 0.00000000" stress="0.00000756 0.00000000 0.00000000 0.00000000 0.00000756 0.00000000 0.00000000 0.00000000 0.00000756" Properties=species:S:1:pos:R:3:vel:R:3:forces:R:3
Au 5.68491041 5.70447408 7.06220195 0.00251239 -0.00032155 -0.00022557 0.00000000 0.00000000 0.00000000
Au 26.76203690 6.06798581 7.31721624 -0.00251239 0.00032155 0.00022557 0.00000000 0.00000000 0.00000000
2
Time=1000.00000000 pbc="T T T" Lattice="47.83483887 -0.00000150 0.00000430 -0.00000037 11.95871544 -0.00000316 0.00000107 -0.00000316 11.95871735" energy=-0.40063477 virial="0.00000000 0.00000000 0.00000000 0.00000000 0.00000000 0.00000000 0.00000000 0.00000000 0.00000000" stress="0.00000756 0.00000000 0.00000000 0.00000000 0.00000756 0.00000000 0.00000000 0.00000000 0.00000756" Properties=species:S:1:pos:R:3:vel:R:3:forces:R:3
Au 6.15060549 5.64487249 7.02039010 0.00094347 -0.00012075 -0.00008471 0.00000000 0.00000000 0.00000000
Au 26.29634182 6.12758740 7.35902809 -0.00094347 0.00012075 0.00008471 0.00000000 0.00000000 0.00000000
2
Time=1250.00000000 pbc="T T T" Lattice="47.83483887 -0.00000150 0.00000430 -0.00000037 11.95871544 -0.00000316 0.00000107 -0.00000316 11.95871735" energy=-0.40063477 virial="0.00000000 0.00000000 0.00000000 0.00000000 0.00000000 0.00000000 0.00000000 0.00000000 0.00000000" stress="0.00000756 0.00000000 0.00000000 0.00000000 0.00000756 0.00000000 0.00000000 0.00000000 0.00000756" Properties=species:S:1:pos:R:3:vel:R:3:forces:R:3
Au 6.57673889 5.59033417 6.98213024 0.00088602 -0.00011340 -0.00007955 0.00000000 0.00000000 0.00000000
Au 25.87020842 6.18212572 7.39728795 -0.00088602 0.00011340 0.00007955 0.00000000 0.00000000 0.00000000
2
Time=1500.00000000 pbc="T T T" Lattice="47.83483887 -0.00000150 0.00000430 -0.00000037 11.95871544 -0.00000316 0.00000107 -0.00000316 11.95871735" energy=-0.40063477 virial="0.00000000 0.00000000 0.00000000 0.00000000 0.00000000 0.00000000 0.00000000 0.00000000 0.00000000" stress="0.00000756 0.00000000 0.00000000 0.00000000 0.00000756 0.00000000 0.00000000 0.00000000 0.00000756" Properties=species:S:1:pos:R:3:vel:R:3:forces:R:3
Au 7.04677778 5.53017664 6.93992839 0.00150778 -0.00019297 -0.00013537 0.00000000 0.00000000 0.00000000
Au 25.40016953 6.24228325 7.43948980 -0.00150778 0.00019297 0.00013537 0.00000000 0.00000000 0.00000000
2
Time=1750.00000000 pbc="T T T" Lattice="47.83483887 -0.00000150 0.00000430 -0.00000037 11.95871544 -0.00000316 0.00000107 -0.00000316 11.95871735" energy=-0.40063477 virial="0.00000000 0.00000000 0.00000000 0.00000000 0.00000000 0.00000000 0.00000000 0.00000000 0.00000000" stress="0.00000756 0.00000000 0.00000000 0.00000000 0.00000756 0.00000000 0.00000000 0.00000000 0.00000756" Properties=species:S:1:pos:R:3:vel:R:3:forces:R:3
Au 7.50011559 5.47215658 6.89922602 0.00114301 -0.00014629 -0.00010262 0.00000000 0.00000000 0.00000000
Au 24.94683172 6.30030331 7.48019217 -0.00114301 0.00014629 0.00010262 0.00000000 0.00000000 0.00000000
2
Time=2000.00000000 pbc="T T T" Lattice="47.83483887 -0.00000150 0.00000430 -0.00000037 11.95871544 -0.00000316 0.00000107 -0.00000316 11.95871735" energy=-0.40063477 virial="0.00000000 0.00000000 0.00000000 0.00000000 0.00000000 0.00000000 0.00000000 0.00000000 0.00000000" stress="0.00000756 0.00000000 0.00000000 0.00000000 0.00000756 0.00000000 0.00000000 0.00000000 0.00000756" Properties=species:S:1:pos:R:3:vel:R:3:forces:R:3
Au 7.86311331 5.42569863 6.86663473 0.00194772 -0.00024928 -0.00017487 0.00000000 0.00000000 0.00000000
Au 24.58383400 6.34676126 7.51278346 -0.00194772 0.00024928 0.00017487 0.00000000 0.00000000 0.00000000
2
Time=2250.00000000 pbc="T T T" Lattice="47.83483887 -0.00000150 0.00000430 -0.00000037 11.95871544 -0.00000316 0.00000107 -0.00000316 11.95871735" energy=-0.40063477 virial="0.00000000 0.00000000 0.00000000 0.00000000 0.00000000 0.00000000 0.00000000 0.00000000 0.00000000" stress="0.00000756 0.00000000 0.00000000 0.00000000 0.00000756 0.00000000 0.00000000 0.00000000 0.00000756" Properties=species:S:1:pos:R:3:vel:R:3:forces:R:3
Au 8.25494785 5.37555002 6.83145436 0.00150449 -0.00019255 -0.00013508 0.00000000 0.00000000 0.00000000
Au 24.19199946 6.39690987 7.54796383 -0.00150449 0.00019255 0.00013508 0.00000000 0.00000000 0.00000000
2
Time=2500.00000000 pbc="T T T" Lattice="47.83483887 -0.00000150 0.00000430 -0.00000037 11.95871544 -0.00000316 0.00000107 -0.00000316 11.95871735" energy=-0.40063477 virial="0.00000000 0.00000000 0.00000000 0.00000000 0.00000000 0.00000000 0.00000000 0.00000000 0.00000000" stress="0.00000756 0.00000000 0.00000000 0.00000000 0.00000756 0.00000000 0.00000000 0.00000000 0.00000756" Properties=species:S:1:pos:R:3:vel:R:3:forces:R:3
Au 8.69192101 5.31962438 6.79222127 0.00087725 -0.00011227 -0.00007876 0.00000000 0.00000000 0.00000000
Au 23.75502630 6.45283551 7.58719692 -0.00087725 0.00011227 0.00007876 0.00000000 0.00000000 0.00000000
2
Time=2750.00000000 pbc="T T T" Lattice="47.83483887 -0.00000150 0.00000430 -0.00000037 11.95871544 -0.00000316 0.00000107 -0.00000316 11.95871735" energy=-0.40063477 virial="0.00000000 0.00000000 0.00000000 0.00000000 0.00000000 0.00000000 0.00000000 0.00000000 0.00000000" stress="0.00000756 0.00000000 0.00000000 0.00000000 0.00000756 0.00000000 0.00000000 0.00000000 0.00000756" Properties=species:S:1:pos:R:3:vel:R:3:forces:R:3
Au 9.13869844 5.26244395 6.75210792 0.00215812 -0.00027620 -0.00019376 0.00000000 0.00000000 0.00000000
Au 23.30824887 6.51001594 7.62731027 -0.00215812 0.00027620 0.00019376 0.00000000 0.00000000 0.00000000
2
Time=3000.00000000 pbc="T T T" Lattice="47.83483887 -0.00000150 0.00000430 -0.00000037 11.95871544 -0.00000316 0.00000107 -0.00000316 11.95871735" energy=-0.40063477 virial="0.00000000 0.00000000 0.00000000 0.00000000 0.00000000 0.00000000 0.00000000 0.00000000 0.00000000" stress="0.00000756 0.00000000 0.00000000 0.00000000 0.00000756 0.00000000 0.00000000 0.00000000 0.00000756" Properties=species:S:1:pos:R:3:vel:R:3:forces:R:3
Au 9.55980914 5.20854845 6.71429902 0.00134535 -0.00017218 -0.00012079 0.00000000 0.00000000 0.00000000
Au 22.88713817 6.56391144 7.66511917 -0.00134535 0.00017218 0.00012079 0.00000000 0.00000000 0.00000000
2
Time=3250.00000000 pbc="T T T" Lattice="47.83483887 -0.00000150 0.00000430 -0.00000037 11.95871544 -0.00000316 0.00000107 -0.00000316 11.95871735" energy=-0.40063477 virial="0.00000000 0.00000000 0.00000000 0.00000000 0.00000000 0.00000000 0.00000000 0.00000000 0.00000000" stress="0.00000756 0.00000000 0.00000000 0.00000000 0.00000756 0.00000000 0.00000000 0.00000000 0.00000756" Properties=species:S:1:pos:R:3:vel:R:3:forces:R:3
Au 9.89469158 5.16568881 6.68423202 0.00097550 -0.00012485 -0.00008758 0.00000000 0.00000000 0.00000000
Au 22.55225573 6.60677108 7.69518617 -0.00097550 0.00012485 0.00008758 0.00000000 0.00000000 0.00000000
2
Time=3500.00000000 pbc="T T T" Lattice="47.83483887 -0.00000150 0.00000430 -0.00000037 11.95871544 -0.00000316 0.00000107 -0.00000316 11.95871735" energy=-0.40063477 virial="0.00000000 0.00000000 0.00000000 0.00000000 0.00000000 0.00000000 0.00000000 0.00000000 0.00000000" stress="0.00000756 0.00000000 0.00000000 0.00000000 0.00000756 0.00000000 0.00000000 0.00000000 0.00000756" Properties=species:S:1:pos:R:3:vel:R:3:forces:R:3
Au 10.32503680 5.11061144 6.64559401 0.00123789 -0.00015843 -0.00011114 0.00000000 0.00000000 0.00000000
Au 22.12191051 6.66184845 7.73382418 -0.00123789 0.00015843 0.00011114 0.00000000 0.00000000 0.00000000
2
Time=3750.00000000 pbc="T T T" Lattice="47.83483887 -0.00000150 0.00000430 -0.00000037 11.95871544 -0.00000316 0.00000107 -0.00000316 11.95871735" energy=-0.40063477 virial="0.00000000 0.00000000 0.00000000 0.00000000 0.00000000 0.00000000 0.00000000 0.00000000 0.00000000" stress="0.00000756 0.00000000 0.00000000 0.00000000 0.00000756 0.00000000 0.00000000 0.00000000 0.00000756" Properties=species:S:1:pos:R:3:vel:R:3:forces:R:3
Au 10.92544541 5.03376865 6.59168708 0.00205753 -0.00026333 -0.00018473 0.00000000 0.00000000 0.00000000
Au 21.52150190 6.73869124 7.78773111 -0.00205753 0.00026333 0.00018473 0.00000000 0.00000000 0.00000000
2
Time=4000.00000000 pbc="T T T" Lattice="47.83483887 -0.00000150 0.00000430 -0.00000037 11.95871544 -0.00000316 0.00000107 -0.00000316 11.95871735" energy=-0.40063477 virial="0.00000000 0.00000000 0.00000000 0.00000000 0.00000000 0.00000000 0.00000000 0.00000000 0.00000000" stress="0.00000756 0.00000000 0.00000000 0.00000000 0.00000756 0.00000000 0.00000000 0.00000000 0.00000756" Properties=species:S:1:pos:R:3:vel:R:3:forces:R:3
Au 11.33960543 4.98076273 6.55450224 0.00219218 -0.00028056 -0.00019682 0.00000000 0.00000000 0.00000000
Au 21.10734188 6.79169716 7.82491595 -0.00219218 0.00028056 0.00019682 0.00000000 0.00000000 0.00000000
2
Time=4250.00000000 pbc="T T T" Lattice="47.83483887 -0.00000150 0.00000430 -0.00000037 11.95871544 -0.00000316 0.00000107 -0.00000316 11.95871735" energy=-0.40063477 virial="0.00000000 0.00000000 0.00000000 0.00000000 0.00000000 0.00000000 0.00000000 0.00000000 0.00000000" stress="0.00000756 0.00000000 0.00000000 0.00000000 0.00000756 0.00000000 0.00000000 0.00000000 0.00000756" Properties=species:S:1:pos:R:3:vel:R:3:forces:R:3
Au 11.69007144 4.93590864 6.52303609 0.00092193 -0.00011799 -0.00008277 0.00000000 0.00000000 0.00000000
Au 20.75687587 6.83655125 7.85638210 -0.00092193 0.00011799 0.00008277 0.00000000 0.00000000 0.00000000
2
Time=4500.00000000 pbc="T T T" Lattice="47.83483887 -0.00000150 0.00000430 -0.00000037 11.95871544 -0.00000316 0.00000107 -0.00000316 11.95871735" energy=-0.40063477 virial="0.00000000 0.00000000 0.00000000 0.00000000 0.00000000 0.00000000 0.00000000 0.00000000 0.00000000" stress="0.00000756 0.00000000 0.00000000 0.00000000 0.00000756 0.00000000 0.00000000 0.00000000 0.00000756" Properties=species:S:1:pos:R:3:vel:R:3:forces:R:3
Au 12.11870388 4.88105048 6.48455186 0.00276200 -0.00035349 -0.00024798 0.00000000 0.00000000 0.00000000
Au 20.32824343 6.89140941 7.89486633 -0.00276200 0.00035349 0.00024798 0.00000000 0.00000000 0.00000000
2
Time=4750.00000000 pbc="T T T" Lattice="47.83483887 -0.00000150 0.00000430 -0.00000037 11.95871544 -0.00000316 0.00000107 -0.00000316 11.95871735" energy=-0.40063477 virial="0.00000000 0.00000000 0.00000000 0.00000000 0.00000000 0.00000000 0.00000000 0.00000000 0.00000000" stress="0.00000756 0.00000000 0.00000000 0.00000000 0.00000756 0.00000000 0.00000000 0.00000000 0.00000756" Properties=species:S:1:pos:R:3:vel:R:3:forces:R:3
Au 12.53001116 4.82840967 6.44762315 0.00094186 -0.00012054 -0.00008456 0.00000000 0.00000000 0.00000000
Au 19.91693615 6.94405022 7.93179504 -0.00094186 0.00012054 0.00008456 0.00000000 0.00000000 0.00000000
2
Time=5000.00000000 pbc="T T T" Lattice="47.83483887 -0.00000150 0.00000430 -0.00000037 11.95871544 -0.00000316 0.00000107 -0.00000316 11.95871735" energy=-0.41290283 virial="-0.32776371 -0.11139010 -0.07814279 -0.11139010 -0.03785580 -0.02655673 -0.07814279 -0.02655673 -0.01863017" stress="-0.00004035 -0.00001628 -0.00001142 -0.00001628 0.00000202 -0.00000388 -0.00001142 -0.00000388 0.00000483" Properties=species:S:1:pos:R:3:vel:R:3:forces:R:3
Au 12.96066784 4.77736925 6.41181716 0.00157367 -0.00013315 -0.00009341 0.05022728 0.01706968 0.01197478
Au 19.48627947 6.99509064 7.96760103 -0.00157367 0.00013315 0.00009341 -0.05022728 -0.01706968 -0.01197478
2
Time=5250.00000000 pbc="T T T" Lattice="47.83483887 -0.00000150 0.00000430 -0.00000037 11.95871544 -0.00000316 0.00000107 -0.00000316 11.95871735" energy=-0.57012939 virial="-1.10738024 -0.46523954 -0.32637647 -0.46523954 -0.19545936 -0.13711933 -0.32637647 -0.13711933 -0.09619243" stress="-0.00015432 -0.00006801 -0.00004771 -0.00006801 -0.00002101 -0.00002004 -0.00004771 -0.00002004 -0.00000650" Properties=species:S:1:pos:R:3:vel:R:3:forces:R:3
Au 13.59041521 4.78001283 6.41367176 0.00224690 0.00031253 0.00021925 0.21028402 0.08834584 0.06197668
Au 18.85653210 6.99244706 7.96574643 -0.00224690 -0.00031253 -0.00021925 -0.21028402 -0.08834584 -0.06197668
2
Time=5500.00000000 pbc="T T T" Lattice="47.83483887 -0.00000150 0.00000430 -0.00000037 11.95871544 -0.00000316 0.00000107 -0.00000316 11.95871735" energy=-0.77374268 virial="-0.44591045 -0.20980340 -0.14718200 -0.20980340 -0.09871369 -0.06924996 -0.14718200 -0.06924996 -0.04858047" stress="-0.00005762 -0.00003067 -0.00002151 -0.00003067 -0.00000687 -0.00001012 -0.00002151 -0.00001012 0.00000046" Properties=species:S:1:pos:R:3:vel:R:3:forces:R:3
Au 14.16234747 4.91645844 6.50939158 0.00138514 0.00042697 0.00029953 0.10817155 0.05089533 0.03570426
Au 18.28459984 6.85600145 7.87002661 -0.00138514 -0.00042697 -0.00029953 -0.10817155 -0.05089533 -0.03570426
2
Time=5750.00000000 pbc="T T T" Lattice="47.83483887 -0.00000150 0.00000430 -0.00000037 11.95871544 -0.00000316 0.00000107 -0.00000316 11.95871735" energy=-1.12821960 virial="-2.01762691 -1.00309412 -0.70369405 -1.00309412 -0.49870361 -0.34985229 -0.70369405 -0.34985229 -0.24542958" stress="-0.00028738 -0.00014663 -0.00010287 -0.00014663 -0.00006534 -0.00005114 -0.00010287 -0.00005114 -0.00002832" Properties=species:S:1:pos:R:3:vel:R:3:forces:R:3
Au 14.64742035 5.10267089 6.64002399 0.00262707 0.00121858 0.00085486 0.64008838 0.31822974 0.22324562
Au 17.79952696 6.66978900 7.73939420 -0.00262707 -0.00121858 -0.00085486 -0.64008838 -0.31822974 -0.22324562
2
Time=6000.00000000 pbc="T T T" Lattice="47.83483887 -0.00000150 0.00000430 -0.00000037 11.95871544 -0.00000316 0.00000107 -0.00000316 11.95871735" energy=-2.83000183 virial="-3.63713586 -1.99278224 -1.39798319 -1.99278224 -1.09184286 -0.76595320 -1.39798319 -0.76595320 -0.53733416" stress="-0.00052412 -0.00029130 -0.00020436 -0.00029130 -0.00015205 -0.00011197 -0.00020436 -0.00011197 -0.00007099" Properties=species:S:1:pos:R:3:vel:R:3:forces:R:3
Au 15.08796128 5.26408420 6.75325920 0.00228889 0.00021764 0.00015268 1.60153949 0.87748152 0.61557375
Au 17.35898603 6.50837569 7.62615899 -0.00228889 -0.00021764 -0.00015268 -1.60153949 -0.87748152 -0.61557375
2
Time=6250.00000000 pbc="T T T" Lattice="47.83483887 -0.00000150 0.00000430 -0.00000037 11.95871544 -0.00000316 0.00000107 -0.00000316 11.95871735" energy=-3.00802612 virial="1.83141965 1.56540287 1.09816707 1.56540287 1.33802552 0.93865649 1.09816707 0.93865649 0.65848953" stress="0.00027527 0.00022883 0.00016053 0.00022883 0.00020315 0.00013721 0.00016053 0.00013721 0.00010382" Properties=species:S:1:pos:R:3:vel:R:3:forces:R:3
Au 15.39214286 5.17565137 6.69122151 0.00236435 0.00017874 0.00012539 -1.10149878 -0.94150424 -0.66048742
Au 17.05480445 6.59680852 7.68819668 -0.00236435 -0.00017874 -0.00012539 1.10149878 0.94150424 0.66048742
2
Time=6500.00000000 pbc="T T T" Lattice="47.83483887 -0.00000150 0.00000430 -0.00000037 11.95871544 -0.00000316 0.00000107 -0.00000316 11.95871735" energy=-3.07179260 virial="-0.41451403 -0.52399707 -0.36759603 -0.52399707 -0.66239703 -0.46468678 -0.36759603 -0.46468678 -0.32598862" stress="-0.00005304 -0.00007660 -0.00005374 -0.00007660 -0.00008927 -0.00006793 -0.00005374 -0.00006793 -0.00004009" Properties=species:S:1:pos:R:3:vel:R:3:forces:R:3
Au 15.53000770 5.00960337 6.57473496 0.00003190 -0.00165725 -0.00116260 0.29887122 0.37781024 0.26504257
Au 16.91693961 6.76285652 7.80468323 -0.00003190 0.00165725 0.00116260 -0.29887122 -0.37781024 -0.26504257
2
Time=6750.00000000 pbc="T T T" Lattice="47.83483887 -0.00000150 0.00000430 -0.00000037 11.95871544 -0.00000316 0.00000107 -0.00000316 11.95871735" energy=-3.05967712 virial="-0.15189283 -0.42459634 -0.29786432 -0.42459634 -1.18690342 -0.83264059 -0.29786432 -0.83264059 -0.58411691" stress="-0.00001465 -0.00006207 -0.00004354 -0.00006207 -0.00016594 -0.00012172 -0.00004354 -0.00012172 -0.00007783" Properties=species:S:1:pos:R:3:vel:R:3:forces:R:3
Au 15.86229333 4.87659770 6.48142837 0.00302729 0.00009754 0.00006842 0.21027283 0.58778995 0.41234846
Au 16.58465398 6.89586219 7.89798982 -0.00302729 -0.00009754 -0.00006842 -0.21027283 -0.58778995 -0.41234846
2
Time=7000.00000000 pbc="T T T" Lattice="47.83483887 -0.00000150 0.00000430 -0.00000037 11.95871544 -0.00000316 0.00000107 -0.00000316 11.95871735" energy=-3.07693481 virial="0.03878059 -0.17098446 -0.11994979 -0.17098446 0.75387418 0.52886117 -0.11994979 0.52886117 0.37100846" stress="0.00001323 -0.00002499 -0.00001753 -0.00002499 0.00011776 0.00007731 -0.00001753 0.00007731 0.00006179" Properties=species:S:1:pos:R:3:vel:R:3:forces:R:3
Au 16.44910294 4.89142574 6.49183055 0.00235946 0.00037676 0.00026430 0.08593874 -0.37890577 -0.26581165
Au 15.99784437 6.88103415 7.88758764 -0.00235946 -0.00037676 -0.00026430 -0.08593874 0.37890577 0.26581165
2
Time=7250.00000000 pbc="T T T" Lattice="47.83483887 -0.00000150 0.00000430 -0.00000037 11.95871544 -0.00000316 0.00000107 -0.00000316 11.95871735" energy=-3.05642700 virial="-0.68490213 0.78775910 0.55263123 0.78775910 -0.90606248 -0.63562387 0.55263123 -0.63562387 -0.44590510" stress="-0.00009256 0.00011515 0.00008078 0.00011515 -0.00012489 -0.00009292 0.00008078 -0.00009292 -0.00005762" Properties=species:S:1:pos:R:3:vel:R:3:forces:R:3
Au 16.96989513 5.02771304 6.58743926 0.00283021 0.00060528 0.00042462 -0.45879048 0.52769053 0.37018713
Au 15.47705218 6.74474685 7.79197893 -0.00283021 -0.00060528 -0.00042462 0.45879048 -0.52769053 -0.37018713
2
Time=7500.00000000 pbc="T T T" Lattice="47.83483887 -0.00000150 0.00000430 -0.00000037 11.95871544 -0.00000316 0.00000107 -0.00000316 11.95871735" energy=-3.07157898 virial="-0.87397265 0.56392825 0.39560929 0.56392825 -0.36387321 -0.25526583 0.39560929 -0.25526583 -0.17907502" stress="-0.00012020 0.00008243 0.00005783 0.00008243 -0.00004563 -0.00003731 0.00005783 -0.00003731 -0.00001862" Properties=species:S:1:pos:R:3:vel:R:3:forces:R:3
Au 17.22561335 5.23960199 6.73608429 -0.00002797 0.00144555 0.00101409 -0.43605331 0.28136212 0.19738230
Au 15.22133396 6.53285790 7.64333390 0.00002797 -0.00144555 -0.00101409 0.43605331 -0.28136212 -0.19738230
2
Time=7750.00000000 pbc="T T T" Lattice="47.83483887 -0.00000150 0.00000430 -0.00000037 11.95871544 -0.00000316 0.00000107 -0.00000316 11.95871735" energy=-3.05838013 virial="2.04013360 -0.43802254 -0.30728368 -0.43802254 0.09404476 0.06597473 -0.30728368 0.06597473 0.04628287" stress="0.00030578 -0.00006403 -0.00004492 -0.00006403 0.00002131 0.00000964 -0.00004492 0.00000964 0.00001432" Properties=species:S:1:pos:R:3:vel:R:3:forces:R:3
Au 17.40576814 5.63238779 7.01163269 0.00051243 0.00129284 0.00090696 0.86278576 -0.18524258 -0.12995227
Au 15.04117917 6.14007210 7.36778550 -0.00051243 -0.00129284 -0.00090696 -0.86278576 0.18524258 0.12995227
2
Time=8000.00000000 pbc="T T T" Lattice="47.83483887 -0.00000150 0.00000430 -0.00000037 11.95871544 -0.00000316 0.00000107 -0.00000316 11.95871735" energy=-3.07373047 virial="-1.28473818 -0.10994694 -0.07713015 -0.10994694 -0.00940918 -0.00660074 -0.07713015 -0.00660074 -0.00463056" stress="-0.00018024 -0.00001607 -0.00001127 -0.00001607 0.00000618 -0.00000096 -0.00001127 -0.00000096 0.00000688" Properties=species:S:1:pos:R:3:vel:R:3:forces:R:3
Au 17.49052231 5.99466301 7.26577723 0.00061802 0.00124228 0.00087149 -0.50698060 -0.04338702 -0.03043693
Au 14.95642500 5.77779688 7.11364096 -0.00061802 -0.00124228 -0.00087149 0.50698060 0.04338702 0.03043693
2
Time=8250.00000000 pbc="T T T" Lattice="47.83483887 -0.00000150 0.00000430 -0.00000037 11.95871544 -0.00000316 0.00000107 -0.00000316 11.95871735" energy=-3.08398438 virial="0.28969586 0.11203372 0.07859412 0.11203372 0.04332677 0.03039466 0.07859412 0.03039466 0.02132256" stress="0.00004991 0.00001638 0.00001149 0.00001638 0.00001389 0.00000444 0.00001149 0.00000444 0.00001067" Properties=species:S:1:pos:R:3:vel:R:3:forces:R:3
Au 17.35151460 6.32247674 7.49574625 -0.00101177 0.00046979 0.00032957 0.12840658 0.04965854 0.03483655
Au 15.09543271 5.44998315 6.88367194 0.00101177 -0.00046979 -0.00032957 -0.12840658 -0.04965854 -0.03483655
2
Time=8500.00000000 pbc="T T T" Lattice="47.83483887 -0.00000150 0.00000430 -0.00000037 11.95871544 -0.00000316 0.00000107 -0.00000316 11.95871735" energy=-3.07859802 virial="0.54886031 0.42092031 0.29528511 0.42092031 0.32280296 0.22645354 0.29528511 0.22645354 0.15886238" stress="0.00008779 0.00006153 0.00004316 0.00006153 0.00005475 0.00003310 0.00004316 0.00003310 0.00003078" Properties=species:S:1:pos:R:3:vel:R:3:forces:R:3
Au 17.12682705 6.57900981 7.67571023 -0.00049425 0.00122440 0.00085894 0.30379045 0.23297656 0.16343829
Au 15.32012026 5.19345008 6.70370796 0.00049425 -0.00122440 -0.00085894 -0.30379045 -0.23297656 -0.16343829
2
Time=8750.00000000 pbc="T T T" Lattice="47.83483887 -0.00000150 0.00000430 -0.00000037 11.95871544 -0.00000316 0.00000107 -0.00000316 11.95871735" energy=-3.03491211 virial="-0.72749358 -0.96710637 -0.67844711 -0.96710637 -1.28563884 -0.90190488 -0.67844711 -0.90190488 -0.63270722" stress="-0.00009879 -0.00014137 -0.00009918 -0.00014137 -0.00018038 -0.00013184 -0.00009918 -0.00013184 -0.00008493" Properties=species:S:1:pos:R:3:vel:R:3:forces:R:3
Au 16.90465975 6.79177594 7.82497066 -0.00242641 0.00117376 0.00082342 -0.53399037 -0.70986943 -0.49798957
Au 15.54228756 4.98068395 6.55444753 0.00242641 -0.00117376 -0.00082342 0.53399037 0.70986943 0.49798957
2
Time=9000.00000000 pbc="T T T" Lattice="47.83483887 -0.00000150 0.00000430 -0.00000037 11.95871544 -0.00000316 0.00000107 -0.00000316 11.95871735" energy=-3.06790161 virial="0.06772881 0.27457674 0.19262186 0.27457674 1.11315078 0.78090072 0.19262186 0.78090072 0.54782000" stress="0.00001746 0.00004014 0.00002816 0.00004014 0.00017028 0.00011415 0.00002816 0.00011415 0.00008764" Properties=species:S:1:pos:R:3:vel:R:3:forces:R:3
Au 16.46658736 6.87182760 7.88112887 -0.00242589 -0.00018180 -0.00012754 0.13929451 0.56470847 0.39615589
Au 15.98035995 4.90063229 6.49828932 0.00242589 0.00018180 0.00012754 -0.13929451 -0.56470847 -0.39615589
2
Time=9250.00000000 pbc="T T T" Lattice="47.83483887 -0.00000150 0.00000430 -0.00000037 11.95871544 -0.00000316 0.00000107 -0.00000316 11.95871735" energy=-3.08352661 virial="-0.01091020 0.05659473 0.03970255 0.05659473 -0.29357445 -0.20594960 0.03970255 -0.20594960 -0.14447850" stress="0.00000596 0.00000827 0.00000580 0.00000827 -0.00003536 -0.00003011 0.00000580 -0.00003011 -0.00001356" Properties=species:S:1:pos:R:3:vel:R:3:forces:R:3
Au 16.02707177 6.90502801 7.90441984 -0.00147308 0.00064198 0.00045037 0.02777520 -0.14407885 -0.10107478
Au 16.41987554 4.86743188 6.47499835 0.00147308 -0.00064198 -0.00045037 -0.02777520 0.14407885 0.10107478
2
Time=9500.00000000 pbc="T T T" Lattice="47.83483887 -0.00000150 0.00000430 -0.00000037 11.95871544 -0.00000316 0.00000107 -0.00000316 11.95871735" energy=-3.06895447 virial="-0.34778407 0.52817917 0.37052995 0.52817917 -0.80214447 -0.56272301 0.37052995 -0.56272301 -0.39476344" stress="-0.00004328 0.00007721 0.00005416 0.00007721 -0.00010970 -0.00008226 0.00005416 -0.00008226 -0.00005015" Properties=species:S:1:pos:R:3:vel:R:3:forces:R:3
Au 15.61694623 6.80736173 7.83590484 -0.00092325 -0.00181703 -0.00127469 0.28670099 -0.43541241 -0.30545193
Au 16.83000108 4.96509816 6.54351335 0.00092325 0.00181703 0.00127469 -0.28670099 0.43541241 0.30545193
2
Time=9750.00000000 pbc="T T T" Lattice="47.83483887 -0.00000150 0.00000430 -0.00000037 11.95871544 -0.00000316 0.00000107 -0.00000316 11.95871735" energy=-3.06784058 virial="0.96744001 -0.70338470 -0.49344125 -0.70338470 0.51140100 0.35876015 -0.49344125 0.35876015 0.25167882" stress="0.00014898 -0.00010282 -0.00007213 -0.00010282 0.00008231 0.00005244 -0.00007213 0.00005244 0.00004435" Properties=species:S:1:pos:R:3:vel:R:3:forces:R:3
Au 15.30514590 6.55390692 7.65810054 -0.00105806 -0.00027543 -0.00019322 -0.52674007 0.38297039 0.26866293
Au 17.14180141 5.21855297 6.72131765 0.00105806 0.00027543 0.00019322 0.52674007 -0.38297039 -0.26866293
2
Time=10000.00000000 pbc="T T T" Lattice="47.83483887 -0.00000150 0.00000430 -0.00000037 11.95871544 -0.00000316 0.00000107 -0.00000316 11.95871735" energy=-3.07917786 virial="-0.71321142 0.32411873 0.22737759 0.32411873 -0.14729580 -0.10333177 0.22737759 -0.10333177 -0.07248977" stress="-0.00009670 0.00004738 0.00003324 0.00004738 -0.00001397 -0.00001510 0.00003324 -0.00001510 -0.00000304" Properties=species:S:1:pos:R:3:vel:R:3:forces:R:3
Au 15.11505071 6.38995287 7.54308305 0.00070951 -0.00160231 -0.00112406 0.32172346 -0.14620715 -0.10256806
Au 17.33189660 5.38250702 6.83633514 -0.00070951 0.00160231 0.00112406 -0.32172346 0.14620715 0.10256806
2
Time=10250.00000000 pbc="T T T" Lattice="47.83483887 -0.00000150 0.00000430 -0.00000037 11.95871544 -0.00000316 0.00000107 -0.00000316 11.95871735" energy=-3.06047058 virial="2.02396607 -0.29260425 -0.20526989 -0.29260425 0.04230174 0.02967583 -0.20526989 0.02967583 0.02081840" stress="0.00030342 -0.00004277 -0.00003001 -0.00004277 0.00001374 0.00000434 -0.00003001 0.00000434 0.00001060" Properties=species:S:1:pos:R:3:vel:R:3:forces:R:3
Au 15.01862028 6.06041536 7.31190489 -0.00108322 -0.00116580 -0.00081784 -0.83992213 0.12142733 0.08518459
Au 17.42832703 5.71204453 7.06751330 0.00108322 0.00116580 0.00081784 0.83992213 -0.12142733 -0.08518459
2
Time=10500.00000000 pbc="T T T" Lattice="47.83483887 -0.00000150 0.00000430 -0.00000037 11.95871544 -0.00000316 0.00000107 -0.00000316 11.95871735" energy=-3.05690002 virial="-1.98448217 -0.21973437 -0.15414771 -0.21973437 -0.02433038 -0.01706821 -0.15414771 -0.01706821 -0.01197366" stress="-0.00028253 -0.00003212 -0.00002253 -0.00003212 0.00000400 -0.00000250 -0.00002253 -0.00000250 0.00000581" Properties=species:S:1:pos:R:3:vel:R:3:forces:R:3
Au 14.94817080 5.74502035 7.09064800 0.00017693 -0.00106924 -0.00075009 0.77804345 0.08614988 0.06043572
Au 17.49877651 6.02743954 7.28877019 -0.00017693 0.00106924 0.00075009 -0.77804345 -0.08614988 -0.06043572
2
Time=10750.00000000 pbc="T T T" Lattice="47.83483887 -0.00000150 0.00000430 -0.00000037 11.95871544 -0.00000316 0.00000107 -0.00000316 11.95871735" energy=-3.07516479 virial="0.86356139 0.49754304 0.34903735 0.49754304 0.28666040 0.20109859 0.34903735 0.20109859 0.14107512" stress="0.00013379 0.00007273 0.00005102 0.00007273 0.00004946 0.00002940 0.00005102 0.00002940 0.00002818" Properties=species:S:1:pos:R:3:vel:R:3:forces:R:3
Au 15.21419040 5.30472930 6.78177344 0.00162257 -0.00119565 -0.00083878 -0.42780924 -0.24648330 -0.17291346
Au 17.23275691 6.46773059 7.59764475 -0.00162257 0.00119565 0.00083878 0.42780924 0.24648330 0.17291346
2
Time=11000.00000000 pbc="T T T" Lattice="47.83483887 -0.00000150 0.00000430 -0.00000037 11.95871544 -0.00000316 0.00000107 -0.00000316 11.95871735" energy=-3.07022095 virial="-0.40562582 -0.54167593 -0.37999773 -0.54167593 -0.72335786 -0.50745177 -0.37999773 -0.50745177 -0.35598892" stress="-0.00005174 -0.00007918 -0.00005555 -0.00007918 -0.00009818 -0.00007418 -0.00005555 -0.00007418 -0.00004448" Properties=species:S:1:pos:R:3:vel:R:3:forces:R:3
Au 15.55595760 4.99482422 6.56436762 0.00119133 -0.00147986 -0.00103816 0.30383226 0.40573999 0.28463566
Au 16.89098971 6.77763567 7.81505057 -0.00119133 0.00147986 0.00103816 -0.30383226 -0.40573999 -0.28463566
2
Time=11250.00000000 pbc="T T T" Lattice="47.83483887 -0.00000150 0.00000430 -0.00000037 11.95871544 -0.00000316 0.00000107 -0.00000316 11.95871735" energy=-3.08444214 virial="-0.01081060 -0.03956127 -0.02775294 -0.03956127 -0.14477384 -0.10156131 -0.02775294 -0.10156131 -0.07124764" stress="0.00000598 -0.00000578 -0.00000406 -0.00000578 -0.00001360 -0.00001485 -0.00000406 -0.00001485 -0.00000286" Properties=species:S:1:pos:R:3:vel:R:3:forces:R:3
Au 15.94918912 4.88249069 6.48556284 0.00203995 0.00040316 0.00028283 0.01970690 0.07211721 0.05059150
Au 16.49775819 6.88996920 7.89385535 -0.00203995 -0.00040316 -0.00028283 -0.01970690 -0.07211721 -0.05059150
2
Time=11500.00000000 pbc="T T T" Lattice="47.83483887 -0.00000150 0.00000430 -0.00000037 11.95871544 -0.00000316 0.00000107 -0.00000316 11.95871735" energy=-3.06990051 virial="0.01319030 -0.11914596 -0.08358368 -0.11914596 1.07622683 0.75499809 -0.08358368 0.75499809 0.52964872" stress="0.00000949 -0.00001742 -0.00001222 -0.00001742 0.00016488 0.00011037 -0.00001222 0.00011037 0.00008498" Properties=species:S:1:pos:R:3:vel:R:3:forces:R:3
Au 16.33446737 4.88364119 6.48636972 0.00142838 -0.00072649 -0.00050965 0.05941915 -0.53672394 -0.37652433
Au 16.11247994 6.88881870 7.89304847 -0.00142838 0.00072649 0.00050965 -0.05941915 0.53672394 0.37652433
2