5
Time=250.00000000 pbc="T T T" Lattice="23.91741943 -0.00000074 0.00000214 -0.00000037 11.95871544 -0.00000316 0.00000107 -0.00000316 11.95871735" energy=-11.88513947 virial="0.74412192 -0.99265310 -0.40651101 -0.99265310 2.23305208 -0.90613156 -0.40651101 -0.90613156 2.06165083" stress="0.00025534 -0.00029021 -0.00011885 -0.00029021 0.00069064 -0.00026492 -0.00011885 -0.00026492 0.00064053" Properties=species:S:1:pos:R:3:vel:R:3:forces:R:3
Au 5.96656693 5.82983821 3.74309457 0.00067113 -0.00115167 -0.00040235 -0.15823298 0.70617939 -0.56614730
Au 5.25749673 5.26173972 6.22592255 -0.00044170 -0.00051435 0.00122195 -0.35811504 0.19457826 0.53760633
Au 7.44933928 4.30520248 7.52082776 -0.00008274 0.00028518 0.00196663 -0.03274510 -0.20739001 0.36664516
Au 7.74489423 6.27897763 5.80460634 0.00083491 0.00066726 0.00004565 -0.05716561 0.25657781 -0.29336998
Au 7.02289135 3.81692454 4.93759469 -0.00098160 0.00071358 -0.00283188 0.60625873 -0.94994545 -0.04473421
5
Time=500.00000000 pbc="T T T" Lattice="23.91741943 -0.00000074 0.00000214 -0.00000037 11.95871544 -0.00000316 0.00000107 -0.00000316 11.95871735" energy=-11.60844421 virial="-3.74172514 0.63079439 -1.02558450 0.63079439 -3.00314916 1.10710328 -1.02558450 1.10710328 -1.42689325" stress="-0.00105614 0.00018442 -0.00029984 0.00018442 -0.00084021 0.00032367 -0.00029984 0.00032367 -0.00037937" Properties=species:S:1:pos:R:3:vel:R:3:forces:R:3
Au 5.85980790 6.09096087 3.78037778 -0.00115127 0.00013884 0.00021015 0.54625959 -0.33313725 0.34022525
Au 5.12022165 5.21347519 6.12071366 -0.00092825 -0.00058587 -0.00133450 1.14167583 -0.28381878 0.23649202
Au 7.48620698 4.30397010 7.59926408 0.00040704 0.00022149 -0.00076310 -0.40318883 0.56461297 -0.50871220
Au 7.83435855 6.24197454 5.64440447 0.00206791 0.00041127 0.00080227 -0.85926285 -0.81358989 0.09194863
Au 7.14059344 3.64230188 5.08728592 -0.00039544 -0.00018572 0.00108517 -0.42548375 0.86593295 -0.15995370
5
Time=750.00000000 pbc="T T T" Lattice="23.91741943 -0.00000074 0.00000214 -0.00000037 11.95871544 -0.00000316 0.00000107 -0.00000316 11.95871735" energy=-11.67863464 virial="2.17011324 -0.78166201 1.67180382 -0.78166201 1.48890122 -1.40120829 1.67180382 -1.40120829 -0.38033279" stress="0.00067224 -0.00022853 0.00048877 -0.00022853 0.00047308 -0.00040966 0.00048877 -0.00040966 -0.00007340" Properties=species:S:1:pos:R:3:vel:R:3:forces:R:3
Au 5.98880811 5.94564746 3.73464457 -0.00164833 -0.00104179 -0.00168927 -0.30519197 0.30904726 0.13801576
Au 5.32479178 5.14229895 6.36743680 0.00176360 0.00159692 -0.00115438 -0.84811775 0.30386121 -1.07286845
Au 7.35050767 4.49083331 7.69566368 0.00060939 -0.00073948 0.00073355 0.87101582 -0.66450071 0.61139629
Au 7.75418161 6.13932617 5.72986377 -0.00069842 -0.00069048 0.00231186 0.17636099 0.37141060 -0.28391201
Au 7.02289936 3.77457668 4.70443709 -0.00002624 0.00087483 -0.00020176 0.10593290 -0.31981836 0.60736841
5
Time=1000.00000000 pbc="T T T" Lattice="23.91741943 -0.00000074 0.00000214 -0.00000037 11.95871544 -0.00000316 0.00000107 -0.00000316 11.95871735" energy=-11.89891815 virial="-1.07816416 -0.35664228 0.60512333 -0.35664228 -0.72047948 0.01482734 0.60512333 0.01482734 0.51848939" stress="-0.00027742 -0.00010427 0.00017691 -0.00010427 -0.00017285 0.00000433 0.00017691 0.00000433 0.00018938" Properties=species:S:1:pos:R:3:vel:R:3:forces:R:3
Au 5.95460298 5.81361040 3.74714547 0.00261595 -0.00082250 0.00126185 -0.00236739 0.15029364 0.08668207
Au 5.23237597 5.35077963 6.30988149 0.00006119 0.00012983 0.00218084 0.43787153 -0.02456151 -0.30923603
Au 7.34523862 4.22898454 7.49774902 -0.00087729 0.00008157 0.00204270 0.13452796 0.21985710 0.39197408
Au 7.77196325 6.32026050 5.72488256 -0.00130003 0.00154003 -0.00171148 -0.43308902 -0.42758286 0.05829492
Au 7.13700770 3.77904749 4.95238736 -0.00049981 -0.00092893 -0.00377391 -0.13694308 0.08199363 -0.22771504
5
Time=1250.00000000 pbc="T T T" Lattice="23.91741943 -0.00000074 0.00000214 -0.00000037 11.95871544 -0.00000316 0.00000107 -0.00000316 11.95871735" energy=-11.66989136 virial="0.30080918 -0.51023286 -1.77586232 -0.51023286 2.55774215 0.80030541 -1.77586232 0.80030541 2.28003163" stress="0.00012573 -0.00014917 -0.00051919 -0.00014917 0.00078557 0.00023398 -0.00051919 0.00023398 0.00070438" Properties=species:S:1:pos:R:3:vel:R:3:forces:R:3
Au 5.96938040 5.92779118 3.73275270 0.00079975 -0.00039588 0.00185370 0.33033171 0.29420938 -0.54753526
Au 5.13733521 5.23473427 6.06493483 -0.00227470 -0.00024398 -0.00102533 -0.49661256 0.39521673 1.29920579
Au 7.54315098 4.27932697 7.59048118 0.00064937 -0.00052573 0.00000543 -0.28763573 0.15990581 0.08948519
Au 7.79047641 6.20672863 5.77518871 0.00106228 0.00090884 -0.00120074 -0.16200161 0.56102993 0.04043574
Au 7.00084552 3.84410152 5.06868850 -0.00023669 0.00025675 0.00036694 0.61591819 -1.41036185 -0.88159146
5
Time=1500.00000000 pbc="T T T" Lattice="23.91741943 -0.00000074 0.00000214 -0.00000037 11.95871544 -0.00000316 0.00000107 -0.00000316 11.95871735" energy=-11.77870941 virial="1.36706444 -0.60456446 -0.25058809 -0.60456446 -1.15713180 0.10816856 -0.25058809 0.10816856 -2.36345812" stress="0.00043746 -0.00017675 -0.00007326 -0.00017675 -0.00030051 0.00003162 -0.00007326 0.00003162 -0.00065319" Properties=species:S:1:pos:R:3:vel:R:3:forces:R:3
Au 6.04213088 5.92800624 3.67417902 -0.00106395 -0.00023973 -0.00090462 0.07214246 -0.13352454 0.43778525
Au 5.37177314 5.21780110 6.25512139 0.00049476 0.00101110 -0.00030767 -0.78404866 0.24291060 -0.24532878
Au 7.34712830 4.34407918 7.68446352 0.00003475 -0.00137720 0.00271626 0.30142535 0.01631652 -0.51002671
Au 7.70641899 6.31501293 5.77177394 0.00012618 0.00087138 -0.00025968 0.08967797 -0.47212203 -0.06184546
Au 6.97373721 3.68778312 4.84650803 0.00040827 -0.00026555 -0.00124428 0.32080287 0.34641945 0.37941569
5
Time=1750.00000000 pbc="T T T" Lattice="23.91741943 -0.00000074 0.00000214 -0.00000037 11.95871544 -0.00000316 0.00000107 -0.00000316 11.95871735" energy=-11.71579742 virial="-3.22681540 0.24950879 -0.25144986 0.24950879 -2.19600453 -0.01197222 -0.25144986 -0.01197222 0.32382717" stress="-0.00090560 0.00007295 -0.00007351 0.00007295 -0.00060423 -0.00000350 -0.00007351 -0.00000350 0.00013246" Properties=species:S:1:pos:R:3:vel:R:3:forces:R:3
Au 5.92514069 5.84340080 3.81833761 0.00126424 -0.00045963 0.00223914 0.43078658 -0.08653836 0.06500999
Au 5.11123863 5.36964232 6.25185058 -0.00102485 0.00031857 -0.00085105 0.98482291 -0.27262817 0.04514549
Au 7.29393886 4.28968396 7.48634164 0.00060738 0.00017856 0.00038908 -0.14839937 0.30342314 0.17221722
Au 7.89569512 6.27929615 5.72607654 -0.00032802 0.00083533 -0.00060436 -0.86315242 -0.67539505 -0.12661787
Au 7.21517523 3.71065934 4.94943954 -0.00051875 -0.00087283 -0.00117281 -0.40405770 0.73113844 -0.15575482
5
Time=2000.00000000 pbc="T T T" Lattice="23.91741943 -0.00000074 0.00000214 -0.00000037 11.95871544 -0.00000316 0.00000107 -0.00000316 11.95871735" energy=-11.59879303 virial="1.71003961 -0.30310712 -2.25983148 -0.30310712 0.91982136 2.55779822 -2.25983148 2.55779822 -3.06179954" stress="0.00053774 -0.00008862 -0.00066068 -0.00008862 0.00030671 0.00074780 -0.00066068 0.00074780 -0.00085735" Properties=species:S:1:pos:R:3:vel:R:3:forces:R:3
Au 6.05792282 5.92897282 3.58530197 0.00048644 -0.00071524 0.00123299 0.02482903 -0.15140926 0.41755443
Au 5.28874609 5.26878708 6.17419146 -0.00181796 0.00145832 -0.00063066 -0.98611861 0.50216228 0.86118214
Au 7.48161484 4.20652279 7.73936997 0.00096380 -0.00120710 0.00041973 -0.53040157 0.61355994 -1.37431507
Au 7.65422724 6.26761741 5.72538870 -0.00029591 0.00066582 -0.00079661 0.52191925 0.11247708 0.39260798
Au 6.95867754 3.82078248 5.00779381 0.00066363 -0.00020180 -0.00022544 0.96977191 -1.07679004 -0.29702948
5
Time=2250.00000000 pbc="T T T" Lattice="23.91741943 -0.00000074 0.00000214 -0.00000037 11.95871544 -0.00000316 0.00000107 -0.00000316 11.95871735" energy=-11.72467804 virial="-0.28044205 -0.59441424 0.35925367 -0.59441424 -1.80215304 -1.06871537 0.35925367 -1.06871537 -2.63183952" stress="-0.00004420 -0.00017378 0.00010503 -0.00017378 -0.00048909 -0.00031245 0.00010503 -0.00031245 -0.00073165" Properties=species:S:1:pos:R:3:vel:R:3:forces:R:3
Au 5.99806103 5.77862233 3.71667912 -0.00058279 0.00102165 -0.00066996 0.05032658 0.31388401 0.07397620
Au 5.32477156 5.36354215 6.26605515 0.00186827 -0.00129028 -0.00024023 0.02672786 -0.15355261 -0.33249060
Au 7.25465657 4.29398822 7.64791469 -0.00106376 -0.00094958 0.00242211 0.24750744 0.11551686 -0.69733675
Au 7.74720073 6.36830528 5.79011298 -0.00007451 0.00004691 -0.00198029 -0.33369327 -0.84737067 -0.09100709
Au 7.11649864 3.68822459 4.81128397 -0.00014720 0.00117130 0.00046837 0.00913139 0.57152240 1.04685824
5
Time=2500.00000000 pbc="T T T" Lattice="23.91741943 -0.00000074 0.00000214 -0.00000037 11.95871544 -0.00000316 0.00000107 -0.00000316 11.95871735" energy=-11.75463867 virial="-0.66299410 0.91058907 0.05405522 0.91058907 -0.21800526 -1.00475217 0.05405522 -1.00475217 4.02302736" stress="-0.00015604 0.00026622 0.00001580 0.00026622 -0.00002595 -0.00029375 0.00001580 -0.00029375 0.00121396" Properties=species:S:1:pos:R:3:vel:R:3:forces:R:3
Au 6.00521981 5.93406785 3.85834178 0.00080239 -0.00057067 0.00064992 0.01899506 0.04226488 -1.32019252
Au 5.12753537 5.26926059 6.14047083 0.00076293 -0.00052285 0.00018336 0.35025515 -0.42046037 0.80215812
Au 7.32970000 4.42004834 7.52505784 -0.00004657 0.00181747 -0.00018933 -0.17510826 -0.25010932 0.60772317
Au 7.79670696 6.21328368 5.70385390 -0.00047503 -0.00033487 0.00108528 0.17051837 0.21707063 0.09553894
Au 7.18202639 3.65602210 5.00432157 -0.00104372 -0.00038907 -0.00172923 -0.36466032 0.41123418 -0.18522771
5
Time=2750.00000000 pbc="T T T" Lattice="23.91741943 -0.00000074 0.00000214 -0.00000037 11.95871544 -0.00000316 0.00000107 -0.00000316 11.95871735" energy=-11.83959198 virial="-0.12971476 1.09611054 -0.50665282 1.09611054 -0.61048056 1.14207998 -0.50665282 1.14207998 -3.05988823" stress="-0.00000013 0.00032046 -0.00014812 0.00032046 -0.00014069 0.00033390 -0.00014812 0.00033390 -0.00085680" Properties=species:S:1:pos:R:3:vel:R:3:forces:R:3
Au 6.08257455 5.89058153 3.56835392 0.00014443 -0.00046187 0.00094714 0.10033251 -0.40256943 0.81920964
Au 5.23443598 5.32197954 6.25767561 -0.00110659 0.00143129 0.00010818 0.07305981 -0.26469008 -0.25897468
Au 7.40171939 4.29017656 7.65448887 0.00005223 -0.00028766 -0.00236241 -0.27363705 0.27992146 -0.60176922
Au 7.62151905 6.24013206 5.74450014 -0.00027884 0.00036679 0.00041855 0.36715111 0.20728469 0.04845452
Au 7.10093957 3.74981289 5.00702737 0.00118878 -0.00104855 0.00088855 -0.26690638 0.18005336 -0.00692026
5
Time=3000.00000000 pbc="T T T" Lattice="23.91741943 -0.00000074 0.00000214 -0.00000037 11.95871544 -0.00000316 0.00000107 -0.00000316 11.95871735" energy=-11.73516846 virial="2.28168843 -0.78726608 0.36193067 -0.78726608 -0.19439020 -1.21007035 0.36193067 -1.21007035 -0.58209165" stress="0.00070486 -0.00023016 0.00010581 -0.00023016 -0.00001904 -0.00035378 0.00010581 -0.00035378 -0.00013239" Properties=species:S:1:pos:R:3:vel:R:3:forces:R:3
Au 5.97112865 5.80384900 3.62355349 -0.00024502 0.00111247 -0.00075602 0.33874043 -0.15474221 0.74664146
Au 5.36303017 5.27449855 6.22543155 0.00074603 -0.00042883 -0.00167127 -1.42967727 0.46901253 -0.88981029
Au 7.26527346 4.38740990 7.59169733 0.00124705 -0.00068138 0.00194425 0.98844309 -0.74711506 0.84041389
Au 7.74246904 6.32243840 5.85578687 -0.00134645 -0.00216551 -0.00111995 0.02718694 -0.03654127 -0.74656331
Au 7.09928721 3.70448673 4.93557666 -0.00040162 0.00216325 0.00160299 0.07530682 0.46938601 0.04931825
5
Time=3250.00000000 pbc="T T T" Lattice="23.91741943 -0.00000074 0.00000214 -0.00000037 11.95871544 -0.00000316 0.00000107 -0.00000316 11.95871735" energy=-11.81504059 virial="-0.22396966 0.04183516 0.22797783 0.04183516 0.62702125 -1.44359964 0.22797783 -1.44359964 3.43933782" stress="-0.00002769 0.00001223 0.00006665 0.00001223 0.00022111 -0.00042205 0.00006665 -0.00042205 0.00104331" Properties=species:S:1:pos:R:3:vel:R:3:forces:R:3
Au 6.12490170 5.85205667 3.78763247 -0.00006076 -0.00064142 -0.00038056 -0.18864539 0.11413679 -0.83423956
Au 5.14822246 5.22860774 6.13973887 0.00220878 -0.00072075 0.00024833 0.21653108 -0.05707385 0.33217840
Au 7.39127171 4.46449765 7.50572012 -0.00075053 0.00046328 0.00161547 -0.12445692 -0.60971720 0.92253843
Au 7.73393869 6.30426558 5.78472672 0.00007372 0.00120322 0.00044234 0.08171585 0.36306644 -0.33264720
Au 7.04285396 3.64325493 5.01422773 -0.00147121 -0.00030432 -0.00192558 0.01485538 0.18958782 -0.08783007
5
Time=3500.00000000 pbc="T T T" Lattice="23.91741943 -0.00000074 0.00000214 -0.00000037 11.95871544 -0.00000316 0.00000107 -0.00000316 11.95871735" energy=-11.76567841 virial="-2.13920912 1.07632929 0.59242318 1.07632929 1.34293300 1.22369813 0.59242318 1.22369813 0.00255239" stress="-0.00058763 0.00031467 0.00017320 0.00031467 0.00043041 0.00035776 0.00017320 0.00035776 0.00003854" Properties=species:S:1:pos:R:3:vel:R:3:forces:R:3
Au 6.04967898 5.79749469 3.64808500 -0.00063047 -0.00089092 0.00172640 -0.07969762 -0.15182445 0.40044933
Au 5.11072560 5.38483676 6.25157435 -0.00190699 0.00103201 -0.00059069 1.01896437 -0.22596992 -0.39521049
Au 7.35220574 4.29291624 7.58056813 -0.00017784 -0.00028090 -0.00212218 -0.26764561 0.30899097 0.31484121
Au 7.71251491 6.21379412 5.70157643 0.00153378 0.00102537 0.00040504 -0.10165162 0.76832033 0.37181113
Au 7.21606330 3.80364077 5.05024201 0.00118152 -0.00088556 0.00058142 -0.56996952 -0.69951692 -0.69189119
5
Time=3750.00000000 pbc="T T T" Lattice="23.91741943 -0.00000074 0.00000214 -0.00000037 11.95871544 -0.00000316 0.00000107 -0.00000316 11.95871735" energy=-11.86344910 virial="0.39670824 0.28249775 -0.68087980 0.28249775 -0.18562389 0.21969263 -0.68087980 0.21969263 -2.88914237" stress="0.00015377 0.00008259 -0.00019906 0.00008259 -0.00001648 0.00006423 -0.00019906 0.00006423 -0.00080688" Properties=species:S:1:pos:R:3:vel:R:3:forces:R:3
Au 6.08356077 5.76412500 3.58059764 0.00113578 0.00060962 0.00018241 -0.04497705 0.15701083 0.37746395
Au 5.26625309 5.33540810 6.21993625 -0.00076648 -0.00073412 -0.00152629 -0.15250227 -0.22674595 0.00641160
Au 7.39092763 4.31952809 7.68269587 0.00191658 -0.00079738 -0.00003105 -0.29441687 0.30232578 -0.86818185
Au 7.63763765 6.30446274 5.77262244 -0.00111842 -0.00204521 -0.00138330 0.30494166 -0.12231487 -0.02585753
Au 7.06280939 3.76915864 4.97619371 -0.00116745 0.00296709 0.00275823 0.18695454 -0.11027580 0.51016382
5
Time=4000.00000000 pbc="T T T" Lattice="23.91741943 -0.00000074 0.00000214 -0.00000037 11.95871544 -0.00000316 0.00000107 -0.00000316 11.95871735" energy=-11.77215576 virial="2.73421840 -0.90803223 -0.30828894 -0.90803223 1.91311595 -1.53491043 -0.30828894 -1.53491043 3.45199452" stress="0.00083716 -0.00026547 -0.00009013 -0.00026547 0.00059711 -0.00044874 -0.00009013 -0.00044874 0.00104701" Properties=species:S:1:pos:R:3:vel:R:3:forces:R:3
Au 6.12039979 5.82987511 3.73324676 -0.00084194 0.00015617 -0.00308461 -0.12946471 0.27738320 -0.84143710
Au 5.29751124 5.21542710 6.14800795 0.00228539 -0.00077874 0.00293376 -1.31490678 0.42936155 0.59252808
Au 7.37783289 4.50997663 7.57600606 -0.00235103 -0.00044913 0.00175523 0.26631186 -0.80548141 0.81534349
Au 7.70088685 6.30439584 5.78875328 0.00080555 0.00118686 -0.00026813 0.45802817 0.49812824 -0.50125379
Au 6.94455777 3.63300789 4.98603186 0.00010203 -0.00011517 -0.00133625 0.72003146 -0.39939157 -0.06518068
5
Time=4250.00000000 pbc="T T T" Lattice="23.91741943 -0.00000074 0.00000214 -0.00000037 11.95871544 -0.00000316 0.00000107 -0.00000316 11.95871735" energy=-11.81378937 virial="-2.60289035 0.59473043 -0.60785344 0.59473043 -1.60504408 0.30383311 -0.60785344 0.30383311 0.25324961" stress="-0.00072319 0.00017387 -0.00017771 0.00017387 -0.00043146 0.00008883 -0.00017771 0.00008883 0.00011183" Properties=species:S:1:pos:R:3:vel:R:3:forces:R:3
Au 5.97578348 5.80076719 3.67220055 -0.00076681 -0.00033511 0.00116212 0.44950275 -0.27222512 0.57200219
Au 5.16788615 5.37685879 6.17353446 -0.00035168 0.00047174 -0.00099347 0.82251304 -0.21325962 -0.11964189
Au 7.34038107 4.36595876 7.55042822 -0.00018673 0.00010468 -0.00034088 -0.18149322 0.14461863 0.59918569
Au 7.78764206 6.27293653 5.76092444 0.00101640 0.00130970 0.00061674 -0.62921821 -0.29411110 -0.43180028
Au 7.16949576 3.67616129 5.07495824 0.00028883 -0.00155100 -0.00044451 -0.46130436 0.63497721 -0.61974572
5
Time=4500.00000000 pbc="T T T" Lattice="23.91741943 -0.00000074 0.00000214 -0.00000037 11.95871544 -0.00000316 0.00000107 -0.00000316 11.95871735" energy=-11.87497711 virial="-0.12421721 0.42063757 -0.14795674 0.42063757 0.68898368 1.28053376 -0.14795674 1.28053376 -1.83022434" stress="0.00000147 0.00012298 -0.00004326 0.00012298 0.00023922 0.00037438 -0.00004326 0.00037438 -0.00049729" Properties=species:S:1:pos:R:3:vel:R:3:forces:R:3
Au 6.10623472 5.81748913 3.56903587 0.00003803 0.00070049 0.00000847 -0.08659475 -0.18665391 0.47737899
Au 5.21849304 5.31158107 6.24385572 -0.00030953 -0.00018548 -0.00162198 0.14092714 0.03626940 -0.14139166
Au 7.39286862 4.34751767 7.66743324 0.00140574 -0.00027781 -0.00030439 -0.21957321 0.28583011 -0.43989852
Au 7.67014937 6.23821151 5.68622499 -0.00030784 0.00010320 0.00029189 0.20574215 0.34598600 0.31471498
Au 7.05344278 3.77788318 5.06549610 -0.00082639 -0.00034040 0.00162601 -0.04050133 -0.48143160 -0.21080378
5
Time=4750.00000000 pbc="T T T" Lattice="23.91741943 -0.00000074 0.00000214 -0.00000037 11.95871544 -0.00000316 0.00000107 -0.00000316 11.95871735" energy=-11.76466370 virial="0.56014430 -1.03746511 1.27216141 -1.03746511 -0.38071853 -1.14153838 1.27216141 -1.14153838 0.32589267" stress="0.00020155 -0.00030331 0.00037193 -0.00030331 -0.00007352 -0.00033374 0.00037193 -0.00033374 0.00013307" Properties=species:S:1:pos:R:3:vel:R:3:forces:R:3
Au 6.22453231 5.74441450 3.71054213 0.00068964 -0.00015233 -0.00111216 -0.31719224 0.25543769 -0.23886303
Au 5.24789597 5.27374193 6.26288065 0.00151599 -0.00067155 0.00148998 -0.15924034 0.25289151 -0.57210615
Au 7.35912329 4.46020663 7.51387231 -0.00125343 -0.00126345 0.00032386 0.47930645 -0.33306073 0.29017511
Au 7.69695623 6.44504599 5.77459810 -0.00056667 0.00086570 -0.00125280 -0.17495722 -0.37229726 0.03290686
Au 6.91268073 3.56927353 4.97015272 -0.00038554 0.00122162 0.00055112 0.17208335 0.19702880 0.48788720
5
Time=5000.00000000 pbc="T T T" Lattice="23.91741943 -0.00000074 0.00000214 -0.00000037 11.95871544 -0.00000316 0.00000107 -0.00000316 11.95871735" energy=-11.84628296 virial="-1.69293513 0.61917283 -0.51952161 0.61917283 0.66703551 -0.51539875 -0.51952161 -0.51539875 -0.18384677" stress="-0.00045715 0.00018102 -0.00015189 0.00018102 0.00023280 -0.00015068 -0.00015189 -0.00015068 -0.00001596" Properties=species:S:1:pos:R:3:vel:R:3:forces:R:3
Au 6.05634981 5.73773894 3.64887368 -0.00134244 -0.00033826 0.00239608 0.09060084 0.18991742 0.03676854
Au 5.13268432 5.43456253 6.13437606 -0.00004252 -0.00029801 -0.00120477 0.68660855 -0.31622682 0.13869139
Au 7.41779352 4.35098561 7.61195044 -0.00128752 0.00133514 -0.00033452 -0.38736631 -0.06838163 -0.01108379
Au 7.72400782 6.21592056 5.80792325 0.00219215 0.00087531 0.00070609 -0.19630777 0.35032363 -0.33092584
Au 7.11035307 3.75347493 5.02892248 0.00048033 -0.00157418 -0.00156287 -0.19353532 -0.15563261 0.16654970
5
Time=5250.00000000 pbc="T T T" Lattice="23.91741943 -0.00000074 0.00000214 -0.00000037 11.95871544 -0.00000316 0.00000107 -0.00000316 11.95871735" energy=-11.64855194 virial="-0.61090041 0.94771343 -0.52545824 0.94771343 1.47572586 2.17085014 -0.52545824 2.17085014 -2.78718209" stress="-0.00014081 0.00027707 -0.00015362 0.00027707 0.00046923 0.00063467 -0.00015362 0.00063467 -0.00077707" Properties=species:S:1:pos:R:3:vel:R:3:forces:R:3
Au 6.06766280 5.88667256 3.61677580 -0.00048868 0.00021096 -0.00153569 -0.09651207 -0.22654540 0.03286984
Au 5.16354708 5.31650784 6.09532412 -0.00072334 0.00072038 -0.00164294 0.40123792 -0.04973802 0.35296505
Au 7.39305962 4.30786512 7.78810948 0.00228757 -0.00037492 -0.00063816 -0.46271930 0.55267625 -1.33791086
Au 7.71969414 6.18342522 5.63765444 -0.00033200 -0.00003819 0.00226634 0.32529730 0.73062685 0.94254374
Au 7.09722490 3.79821184 5.09418207 -0.00074355 -0.00051823 0.00155045 -0.16730385 -1.00701968 0.00953222
5
Time=5500.00000000 pbc="T T T" Lattice="23.91741943 -0.00000074 0.00000214 -0.00000037 11.95871544 -0.00000316 0.00000107 -0.00000316 11.95871735" energy=-11.75482941 virial="0.07363823 -0.20980050 0.73545681 -0.20980050 -0.66311517 -0.16667424 0.73545681 -0.16667424 0.41450635" stress="0.00005932 -0.00006134 0.00021502 -0.00006134 -0.00015608 -0.00004873 0.00021502 -0.00004873 0.00015898" Properties=species:S:1:pos:R:3:vel:R:3:forces:R:3
Au 6.34970699 5.72252212 3.64988094 0.00087458 0.00068204 -0.00125512 -0.33835321 0.17224556 -0.14670487
Au 5.22963457 5.33581652 6.25228378 0.00112032 -0.00110830 0.00205699 0.11225137 -0.03043634 -0.27198854
Au 7.44250333 4.35177721 7.46870665 -0.00154090 0.00033839 -0.00142669 0.01980326 0.16835822 0.16766192
Au 7.57192319 6.51467789 5.83092114 -0.00031865 0.00008733 -0.00041221 0.10358748 -0.37749767 0.16928554
Au 6.84742044 3.56788883 5.03025340 -0.00013535 0.00000053 0.00103703 0.10271109 0.06733023 0.08174595
5
Time=5750.00000000 pbc="T T T" Lattice="23.91741943 -0.00000074 0.00000214 -0.00000037 11.95871544 -0.00000316 0.00000107 -0.00000316 11.95871735" energy=-11.64691925 virial="-0.64136244 0.31613319 -0.74732435 0.31613319 1.30687559 0.01777807 -0.74732435 0.01777807 -1.91732271" stress="-0.00014972 0.00009242 -0.00021849 0.00009242 0.00041987 0.00000520 -0.00021849 0.00000520 -0.00052276" Properties=species:S:1:pos:R:3:vel:R:3:forces:R:3
Au 6.33399923 5.85326041 3.39756880 -0.00086016 0.00034433 0.00020056 0.15772600 -0.28355290 1.00994317
Au 5.14223317 5.23641027 6.37117167 -0.00018699 0.00012511 -0.00017355 0.20419905 0.10137836 -0.15923138
Au 7.46436520 4.43802844 7.64043568 -0.00084252 -0.00030685 -0.00053320 -0.27734258 -0.46900553 0.21859510
Au 7.60198505 6.19080316 5.78631950 0.00122298 0.00131104 -0.00000937 -0.05224840 0.85222843 -0.82522419
Au 6.89860588 3.77418030 5.03655026 0.00066670 -0.00147363 0.00051557 -0.03233406 -0.20104835 -0.24408270
5
Time=6000.00000000 pbc="T T T" Lattice="23.91741943 -0.00000074 0.00000214 -0.00000037 11.95871544 -0.00000316 0.00000107 -0.00000316 11.95871735" energy=-11.81691742 virial="-1.42100610 0.72609945 -1.22870079 0.72609945 -1.28489969 -0.64225388 -1.22870079 -0.64225388 -0.85674068" stress="-0.00037765 0.00021228 -0.00035922 0.00021228 -0.00033786 -0.00018777 -0.00035922 -0.00018777 -0.00021269" Properties=species:S:1:pos:R:3:vel:R:3:forces:R:3
Au 5.96104492 5.74661137 3.61427414 -0.00116912 -0.00025294 -0.00105446 0.52046704 -0.20501923 0.45982620
Au 5.24971593 5.43355380 6.12156043 0.00019234 0.00043022 0.00028999 0.30959604 -0.29606286 0.12229308
Au 7.29582228 4.37865003 7.61079758 -0.00040843 0.00015343 0.00031375 -0.23077391 -0.20902634 0.10461128
Au 7.78675723 6.25574040 5.86416917 0.00023517 -0.00198286 0.00039085 -0.28409583 -0.07552569 -0.72988304
Au 7.14784817 3.67812696 5.02124460 0.00115003 0.00165216 0.00005987 -0.31519334 0.78563412 0.04315249
5
Time=6250.00000000 pbc="T T T" Lattice="23.91741943 -0.00000074 0.00000214 -0.00000037 11.95871544 -0.00000316 0.00000107 -0.00000316 11.95871735" energy=-11.49909210 virial="1.97322391 0.17938922 0.64235818 0.17938922 -1.52685117 0.42542960 0.64235818 0.42542960 6.02312344" stress="0.00061468 0.00005245 0.00018780 0.00005245 -0.00040860 0.00012438 0.00018780 0.00012438 0.00179871" Properties=species:S:1:pos:R:3:vel:R:3:forces:R:3
Au 6.00538974 5.80647946 3.76357185 0.00093730 0.00112377 -0.00041438 -0.17167940 -0.23310826 -1.76409461
Au 5.38757842 5.42528365 6.16324753 -0.00106244 0.00128491 -0.00088933 -0.80724336 -0.05757441 0.96174635
Au 7.07649542 4.17441462 7.64191611 0.00184171 -0.00160476 0.00062524 0.39945847 0.11358060 0.94241010
Au 7.75880121 6.43989332 5.50747911 -0.00168857 -0.00023159 -0.00078557 0.63551763 -0.35116763 0.72588542
Au 7.21292373 3.64661153 5.15583131 -0.00002800 -0.00057234 0.00146405 -0.05605334 0.52826970 -0.86594726
5
Time=6500.00000000 pbc="T T T" Lattice="23.91741943 -0.00000074 0.00000214 -0.00000037 11.95871544 -0.00000316 0.00000107 -0.00000316 11.95871735" energy=-11.80109406 virial="-1.32944575 -0.49295445 0.01869104 -0.49295445 -0.24577455 -1.94430879 0.01869104 -1.94430879 -1.14480573" stress="-0.00035089 -0.00014412 0.00000546 -0.00014412 -0.00003406 -0.00056844 0.00000546 -0.00056844 -0.00029690" Properties=species:S:1:pos:R:3:vel:R:3:forces:R:3
Au 6.08651095 5.73251744 3.64973211 -0.00019449 0.00108986 0.00116466 0.07488328 0.28857990 0.41452589
Au 5.21230940 5.38934801 6.21775091 -0.00088805 0.00010343 -0.00112645 0.45375662 -0.01603255 -0.53308367
Au 7.27243276 4.41556156 7.56699200 0.00073596 0.00095545 -0.00063179 0.01617093 -0.53443267 0.31136997
Au 7.82316226 6.27679012 5.85792583 0.00019425 0.00019195 0.00054402 -0.55228388 -0.16055521 -0.81330576
Au 7.04677315 3.67846544 4.93964506 0.00015234 -0.00234069 0.00004955 0.00747306 0.42244053 0.62049357
5
Time=6750.00000000 pbc="T T T" Lattice="23.91741943 -0.00000074 0.00000214 -0.00000037 11.95871544 -0.00000316 0.00000107 -0.00000316 11.95871735" energy=-11.79639435 virial="-0.47377593 0.13322816 -0.45343337 0.13322816 0.73497840 1.35740498 -0.45343337 1.35740498 -3.29029310" stress="-0.00010072 0.00003895 -0.00013257 0.00003895 0.00025267 0.00039685 -0.00013257 0.00039685 -0.00092416" Properties=species:S:1:pos:R:3:vel:R:3:forces:R:3
Au 6.15730779 5.90526818 3.52600493 0.00021777 -0.00137514 0.00076250 0.10480244 -0.29734139 0.92206698
Au 5.21642534 5.25881807 6.25862685 -0.00006552 0.00070912 0.00046327 0.14974817 0.24751569 -0.26719345
Au 7.32951861 4.37284229 7.71402956 -0.00012955 0.00052172 0.00017881 -0.15489268 0.11905912 -0.60469110
Au 7.73366922 6.16821766 5.73070800 -0.00028917 -0.00063895 0.00061730 -0.09172909 0.39098742 0.06374667
Au 7.00426757 3.78753637 5.00267657 0.00026647 0.00078325 -0.00202188 -0.00792884 -0.46022083 -0.11392910
5
Time=7000.00000000 pbc="T T T" Lattice="23.91741943 -0.00000074 0.00000214 -0.00000037 11.95871544 -0.00000316 0.00000107 -0.00000316 11.95871735" energy=-11.65614319 virial="-1.10592871 0.13364622 0.03638895 0.13364622 -2.79578659 1.56093566 0.03638895 1.56093566 2.34859730" stress="-0.00028554 0.00003907 0.00001064 0.00003907 -0.00077958 0.00045635 0.00001064 0.00045635 0.00072442" Properties=species:S:1:pos:R:3:vel:R:3:forces:R:3
Au 6.04120005 5.91193255 3.67386639 0.00094922 0.00045595 -0.00150331 0.30755826 -0.39035798 0.51049269
Au 5.26684225 5.39335656 6.18022026 0.00052027 -0.00066528 0.00085432 0.27963656 -0.07145437 -0.23453638
Au 7.24133635 4.20351844 7.52871128 0.00042957 -0.00089001 0.00303930 0.18476336 0.63948079 1.38945429
Au 7.76164351 6.35939191 5.72200424 -0.00129731 -0.00134900 -0.00151199 -0.42835222 -0.78494408 0.00129123
Au 7.13016637 3.62448311 5.12724374 -0.00060175 0.00244834 -0.00087832 -0.34360596 0.60727564 -1.66670183
5
Time=7250.00000000 pbc="T T T" Lattice="23.91741943 -0.00000074 0.00000214 -0.00000037 11.95871544 -0.00000316 0.00000107 -0.00000316 11.95871735" energy=-11.87635803 virial="-0.27007835 -0.18853406 -0.66404971 -0.18853406 0.70967261 -1.69045919 -0.66404971 -1.69045919 2.10616877" stress="-0.00004117 -0.00005512 -0.00019414 -0.00005512 0.00024527 -0.00049422 -0.00019414 -0.00049422 0.00065355" Properties=species:S:1:pos:R:3:vel:R:3:forces:R:3
Au 6.07249144 5.88760371 3.76753058 0.00019880 0.00042131 0.00228630 0.19646687 0.29373201 -0.58743783
Au 5.20992122 5.29407912 6.13315111 -0.00065532 0.00050268 -0.00216646 -0.04952448 -0.04190397 0.48498722
Au 7.29508204 4.39169137 7.55747930 0.00064850 -0.00145454 0.00042209 -0.07766199 -0.56628394 0.52882108
Au 7.82342681 6.22108311 5.83138135 -0.00028711 0.00103845 -0.00183045 -0.19255327 0.20855450 -0.61241010
Au 7.04026702 3.69822525 4.94250356 0.00009513 -0.00050791 0.00128852 0.12327287 0.10590139 0.18603963
5
Time=7500.00000000 pbc="T T T" Lattice="23.91741943 -0.00000074 0.00000214 -0.00000037 11.95871544 -0.00000316 0.00000107 -0.00000316 11.95871735" energy=-11.70944214 virial="0.61893522 0.17696852 0.15466632 0.17696852 -0.14981341 -0.15098319 0.15466632 -0.15098319 -3.84992020" stress="0.00021874 0.00005174 0.00004522 0.00005174 -0.00000601 -0.00004414 0.00004522 -0.00004414 -0.00108777" Properties=species:S:1:pos:R:3:vel:R:3:forces:R:3
Au 6.18140826 5.90485495 3.55349685 0.00048465 -0.00137807 0.00164003 -0.08817297 0.11659823 0.58552858
Au 5.28377924 5.29599111 6.33160605 -0.00108031 0.00016808 -0.00026523 -0.20805239 -0.17031405 -0.52481899
Au 7.29617218 4.30316037 7.72878557 0.00029573 0.00059705 -0.00032109 0.03045013 0.11520915 -0.76673415
Au 7.66215002 6.21093830 5.80466373 0.00082539 0.00081797 0.00066813 0.27305589 -0.08210797 -0.08088259
Au 7.01767884 3.77773784 4.81349372 -0.00052545 -0.00020504 -0.00172185 -0.00728066 0.02061463 0.78690715
5
Time=7750.00000000 pbc="T T T" Lattice="23.91741943 -0.00000074 0.00000214 -0.00000037 11.95871544 -0.00000316 0.00000107 -0.00000316 11.95871735" energy=-11.67575073 virial="-0.89613614 -0.44364508 -0.19732892 -0.44364508 -2.57020168 1.86367456 -0.19732892 1.86367456 -2.68261086" stress="-0.00022420 -0.00012970 -0.00005769 -0.00012970 -0.00071363 0.00054486 -0.00005769 0.00054486 -0.00074650" Properties=species:S:1:pos:R:3:vel:R:3:forces:R:3
Au 6.08085310 6.19894270 3.71690943 0.00022926 0.00150599 -0.00092588 -0.18498659 -0.53290807 0.23479974
Au 5.21205597 5.16187323 6.08303429 0.00219657 -0.00121232 0.00077368 0.46671212 0.29074737 0.10515438
Au 7.31813441 4.29477295 7.71105282 -0.00060341 0.00092269 0.00211018 -0.30649100 0.49312115 -1.09347977
Au 7.78088426 6.21366359 5.65969596 -0.00183378 -0.00301000 -0.00109712 -0.18510278 -0.76288172 0.70699057