4
Time=250.00000000 pbc="T T T" Lattice="23.91741943 -0.00000075 0.00000215 -0.00000037 11.95871544 -0.00000316 0.00000107 -0.00000316 11.95871735" energy=-8.29053497 virial="0.78187918 -0.15516245 -0.06521940 -0.15516245 0.01284701 -0.04920867 -0.06521940 -0.04920867 -0.75563873" stress="0.00025882 -0.00004536 -0.00001907 -0.00004536 0.00003399 -0.00001439 -0.00001907 -0.00001439 -0.00019069" Properties=species:S:1:pos:R:3:vel:R:3:forces:R:3
Au 6.14214647 6.48965153 3.48794632 0.00098510 -0.00002233 0.00069224 -0.72759964 0.24496869 0.25916732
Au 9.60696771 5.60107016 6.50054486 0.00150469 -0.00029181 0.00033682 -0.47090614 0.17820884 0.04101619
Au 8.44324945 5.89787307 4.22634702 -0.00213844 0.00045847 0.00108698 0.96917540 -0.28923461 0.02171755
Au 6.94148381 6.48937343 6.26905035 -0.00035135 -0.00014432 -0.00211604 0.22933039 -0.13394292 -0.32190106
4
Time=500.00000000 pbc="T T T" Lattice="23.91741943 -0.00000075 0.00000215 -0.00000037 11.95871544 -0.00000316 0.00000107 -0.00000316 11.95871735" energy=-8.17791748 virial="6.41104229 -1.80102350 1.51658865 -1.80102350 0.49855947 -0.52504782 1.51658865 -0.52504782 -1.05991353" stress="0.00190456 -0.00052655 0.00044339 -0.00052655 0.00017599 -0.00015350 0.00044339 -0.00015350 -0.00027964" Properties=species:S:1:pos:R:3:vel:R:3:forces:R:3
Au 6.11129160 6.57242794 3.73818931 0.00057567 0.00024827 -0.00081732 -0.25644185 0.06653397 -0.04944929
Au 9.33627189 5.74996251 6.64157231 0.00098497 0.00031688 0.00172558 2.63088453 -0.77083220 0.25930906
Au 8.58581466 5.78209108 3.95839981 -0.00100967 -0.00024601 -0.00225914 0.18530172 -0.00793140 0.59778061
Au 7.10046930 6.37348666 6.14572712 -0.00055097 -0.00031914 0.00135088 -2.55974440 0.71222963 -0.80764038
4
Time=750.00000000 pbc="T T T" Lattice="23.91741943 -0.00000075 0.00000215 -0.00000037 11.95871544 -0.00000316 0.00000107 -0.00000316 11.95871735" energy=-8.44235229 virial="-0.00444713 -0.13137764 0.06311150 -0.13137764 0.05096880 -0.16570992 0.06311150 -0.16570992 -2.50101615" stress="0.00002893 -0.00003841 0.00001845 -0.00003841 0.00004513 -0.00004845 0.00001845 -0.00004845 -0.00070096" Properties=species:S:1:pos:R:3:vel:R:3:forces:R:3
Au 6.17476484 6.61276047 3.62632710 0.00182445 -0.00066771 0.00099815 -0.43283452 0.10739874 0.25849411
Au 9.50381015 5.75397710 6.56411937 -0.00082475 0.00029124 0.00106258 -0.39539408 0.01186684 -0.39010710
Au 8.52823285 5.75997883 4.07106716 -0.00058492 0.00003922 -0.00358921 0.43016806 -0.05068871 0.78865345
Au 6.92703960 6.35125179 6.22237492 -0.00041478 0.00033725 0.00152848 0.39806053 -0.06857688 -0.65704047
4
Time=1000.00000000 pbc="T T T" Lattice="23.91741943 -0.00000075 0.00000215 -0.00000037 11.95871544 -0.00000316 0.00000107 -0.00000316 11.95871735" energy=-8.26875305 virial="-2.42311847 0.54129785 -3.67661419 0.54129785 -0.10672703 1.07837254 -3.67661419 1.07837254 -1.01795966" stress="-0.00067819 0.00015825 -0.00107489 0.00015825 -0.00000097 0.00031527 -0.00107489 0.00031527 -0.00026738" Properties=species:S:1:pos:R:3:vel:R:3:forces:R:3
Au 5.95827106 6.60446006 3.58334033 0.00050225 -0.00078669 -0.00193388 0.87790483 -0.23998635 0.72380975
Au 9.59989242 5.65366359 6.67571972 0.00047075 -0.00062602 0.00070655 -0.86772721 0.21586674 -0.75621794
Au 8.52567245 5.82788475 4.15748996 -0.00275691 0.00139036 0.00026508 0.50684197 -0.18374103 -0.64929287
Au 7.05001152 6.39195978 6.06733854 0.00178391 0.00002234 0.00096225 -0.51701958 0.20786064 0.68170106
4
Time=1250.00000000 pbc="T T T" Lattice="23.91741943 -0.00000075 0.00000215 -0.00000037 11.95871544 -0.00000316 0.00000107 -0.00000316 11.95871735" energy=-8.27084351 virial="-0.10912874 0.43020718 1.67960142 0.43020718 -0.21159433 0.00478950 1.67960142 0.00478950 2.63393622" stress="-0.00000167 0.00012577 0.00049105 0.00012577 -0.00003163 0.00000140 0.00049105 0.00000140 0.00080029" Properties=species:S:1:pos:R:3:vel:R:3:forces:R:3
Au 6.12588815 6.47258769 3.80922678 -0.00199339 0.00034522 0.00010645 -1.13335293 0.15107081 -1.80951779
Au 9.47447986 5.57744383 6.52305815 -0.00014330 -0.00008451 0.00204152 -0.61448306 0.29051761 -0.35121107
Au 8.62062223 5.90546436 4.02314979 0.00035433 0.00029536 -0.00077600 0.33554454 -0.11424360 0.67646140
Au 6.91285722 6.52247231 6.12845383 0.00178236 -0.00055606 -0.00137196 1.41229145 -0.32734482 1.48426746
4
Time=1500.00000000 pbc="T T T" Lattice="23.91741943 -0.00000075 0.00000215 -0.00000037 11.95871544 -0.00000316 0.00000107 -0.00000316 11.95871735" energy=-8.47249603 virial="-1.74739596 0.53704294 0.17937040 0.53704294 -0.17585550 -0.10150789 0.17937040 -0.10150789 0.14551489" stress="-0.00048063 0.00015701 0.00005244 0.00015701 -0.00002118 -0.00002968 0.00005244 -0.00002968 0.00007277" Properties=species:S:1:pos:R:3:vel:R:3:forces:R:3
Au 6.06497320 6.52818899 3.66372233 0.00087868 0.00016983 0.00013325 0.32764299 -0.04653652 0.25441679
Au 9.52976941 5.61108903 6.49888860 -0.00240287 0.00115356 -0.00263566 -0.22995961 0.11307680 0.36533899
Au 8.58646201 5.86607969 4.14219629 0.00124139 -0.00089123 0.00085902 -0.52877467 0.12505709 -0.32825933
Au 6.95264284 6.47261049 6.17908133 0.00028279 -0.00043217 0.00164339 0.43109129 -0.19159736 -0.29149645
4
Time=1750.00000000 pbc="T T T" Lattice="23.91741943 -0.00000075 0.00000215 -0.00000037 11.95871544 -0.00000316 0.00000107 -0.00000316 11.95871735" energy=-8.40055847 virial="0.85307030 -0.15384951 -0.40655763 -0.15384951 0.01529816 0.26679405 -0.40655763 0.26679405 2.20394987" stress="0.00027964 -0.00004498 -0.00011886 -0.00004498 0.00003470 0.00007800 -0.00011886 0.00007800 0.00067458" Properties=species:S:1:pos:R:3:vel:R:3:forces:R:3
Au 5.99098629 6.66785712 3.73540976 -0.00012809 0.00021888 -0.00051060 0.38376379 -0.17831540 -0.14747497
Au 9.48128249 5.74091753 6.58330094 0.00085519 -0.00005567 -0.00019545 0.57688598 -0.16123298 0.32683318
Au 8.60600181 5.74409984 4.11793927 -0.00092541 0.00023363 0.00159342 -0.08883624 0.03058604 -0.87483063
Au 7.05557686 6.32509369 6.04723858 0.00019831 -0.00039684 -0.00088736 -0.87181352 0.30896234 0.69547242
4
Time=2000.00000000 pbc="T T T" Lattice="23.91741943 -0.00000075 0.00000215 -0.00000037 11.95871544 -0.00000316 0.00000107 -0.00000316 11.95871735" energy=-8.46830750 virial="1.19469112 -0.25996067 1.07646082 -0.25996067 0.05000755 -0.26281050 1.07646082 -0.26281050 0.31255555" stress="0.00037951 -0.00007600 0.00031471 -0.00007600 0.00004485 -0.00007684 0.00031471 -0.00007684 0.00012161" Properties=species:S:1:pos:R:3:vel:R:3:forces:R:3
Au 6.13469618 6.60247313 3.72466259 -0.00152340 -0.00005455 0.00168592 -0.09091141 -0.00457246 0.00454477
Au 9.43619787 5.72808733 6.48899683 0.00066270 -0.00057578 0.00289533 0.65783100 -0.17587863 0.49476805
Au 8.59598784 5.78439045 4.05758715 0.00138163 -0.00012810 -0.00291603 -0.31019169 0.10467567 -0.08683367
Au 6.96696556 6.36301728 6.21264198 -0.00052094 0.00075843 -0.00166522 -0.25672791 0.07577542 -0.41247915
4
Time=2250.00000000 pbc="T T T" Lattice="23.91741943 -0.00000075 0.00000215 -0.00000037 11.95871544 -0.00000316 0.00000107 -0.00000316 11.95871735" energy=-8.37558746 virial="-2.56355845 0.87819999 -0.54493085 0.87819999 -0.33432234 0.07144970 -0.54493085 0.07144970 -2.07455993" stress="-0.00071925 0.00025675 -0.00015932 0.00025675 -0.00006751 0.00002089 -0.00015932 0.00002089 -0.00057628" Properties=species:S:1:pos:R:3:vel:R:3:forces:R:3
Au 6.06271336 6.48482272 3.63031589 0.00203274 -0.00113965 0.00030690 0.20220251 0.02381042 0.32381270
Au 9.59815492 5.54412424 6.52902375 -0.00027863 -0.00056537 -0.00240721 -0.81617137 0.33969602 -0.42886500
Au 8.55716188 5.91021941 4.13848334 0.00019992 0.00035704 0.00062064 -0.12295496 -0.00771728 0.53716676
Au 6.91581729 6.53880182 6.18606558 -0.00195403 0.00134798 0.00147967 0.73692382 -0.35578916 -0.43211446
4
Time=2500.00000000 pbc="T T T" Lattice="23.91741943 -0.00000075 0.00000215 -0.00000037 11.95871544 -0.00000316 0.00000107 -0.00000316 11.95871735" energy=-8.36788177 virial="1.08064917 -0.40354687 -0.12905604 -0.40354687 0.10026312 0.37866293 -0.12905604 0.37866293 1.34008494" stress="0.00034617 -0.00011798 -0.00003773 -0.00011798 0.00005955 0.00011071 -0.00003773 0.00011071 0.00042202" Properties=species:S:1:pos:R:3:vel:R:3:forces:R:3
Au 5.97315882 6.41522045 3.76967051 -0.00037115 0.00032076 0.00032579 -0.03962655 0.04540967 -0.58514329
Au 9.38573758 5.51998574 6.65821551 0.00065356 -0.00006727 0.00043250 0.31478339 0.00693973 -0.28468761
Au 8.65487848 6.03918627 4.03185736 0.00000849 -0.00006104 0.00040917 0.20980323 -0.23924133 -0.10109302
Au 7.12007256 6.50357574 6.02414517 -0.00029090 -0.00019245 -0.00116746 -0.48496007 0.18689193 0.97092392
4
Time=2750.00000000 pbc="T T T" Lattice="23.91741943 -0.00000075 0.00000215 -0.00000037 11.95871544 -0.00000316 0.00000107 -0.00000316 11.95871735" energy=-8.43379211 virial="-0.25393070 -0.01344653 0.44136066 -0.01344653 0.01526878 -0.18972115 0.44136066 -0.18972115 -2.00114142" stress="-0.00004401 -0.00000393 0.00012904 -0.00000393 0.00003470 -0.00005547 0.00012904 -0.00005547 -0.00055482" Properties=species:S:1:pos:R:3:vel:R:3:forces:R:3
Au 6.16678616 6.60403849 3.65646934 -0.00141499 0.00178842 -0.00064693 -0.41679334 0.09935495 0.24242050
Au 9.51798801 5.72912571 6.50408393 0.00023410 0.00120258 0.00010674 -0.37255162 0.03976761 -0.14486119
Au 8.54191490 5.79332764 4.06925678 0.00169764 -0.00199800 -0.00044813 0.25089720 -0.02673998 0.61113072
Au 6.90715838 6.35147635 6.25407851 -0.00051676 -0.00099301 0.00098832 0.53844775 -0.11238259 -0.70869003
4
Time=3000.00000000 pbc="T T T" Lattice="23.91741943 -0.00000075 0.00000215 -0.00000037 11.95871544 -0.00000316 0.00000107 -0.00000316 11.95871735" energy=-8.30175018 virial="-1.54923587 0.71674988 -0.86072553 0.71674988 -0.57967400 0.22310175 -0.86072553 0.22310175 -3.74347567" stress="-0.00042270 0.00020955 -0.00025164 0.00020955 -0.00013924 0.00006523 -0.00025164 0.00006523 -0.00106421" Properties=species:S:1:pos:R:3:vel:R:3:forces:R:3
Au 6.11080449 6.81502597 3.64492726 0.00067947 -0.00039772 -0.00039039 0.67942188 -0.52929840 0.76471651
Au 9.53154917 5.92223031 6.60106147 -0.00046275 -0.00026078 -0.00127211 -0.11987092 -0.19121207 -0.51371221
Au 8.50791257 5.59471689 4.03723059 -0.00023631 0.00065979 0.00097746 -0.42695772 0.48676607 0.73187727
Au 6.98358122 6.14599503 6.20066923 0.00001959 -0.00000130 0.00068504 -0.13259324 0.23374440 -0.98288157
4
Time=3250.00000000 pbc="T T T" Lattice="23.91741943 -0.00000075 0.00000215 -0.00000037 11.95871544 -0.00000316 0.00000107 -0.00000316 11.95871735" energy=-8.46654510 virial="2.18514889 -0.62622516 -0.32506098 -0.62622516 0.18070700 0.13640076 -0.32506098 0.13640076 1.55387913" stress="0.00066908 -0.00018308 -0.00009503 -0.00018308 0.00008306 0.00003988 -0.00009503 0.00003988 0.00048452" Properties=species:S:1:pos:R:3:vel:R:3:forces:R:3
Au 6.05077895 6.56852623 3.69593034 -0.00051301 -0.00191007 0.00047479 0.06293208 -0.01774205 0.00737209
Au 9.45979140 5.68742261 6.56540894 -0.00204171 -0.00152798 0.00093240 0.76945167 -0.20828574 0.31788804
Au 8.57008313 5.86816347 4.11146049 -0.00067853 0.00220362 -0.00006577 0.26137211 -0.09410716 -0.71376316
Au 7.05319397 6.35385589 6.11108879 0.00323325 0.00123443 -0.00134141 -1.09375586 0.32013495 0.38850303
4
Time=3500.00000000 pbc="T T T" Lattice="23.91741943 -0.00000075 0.00000215 -0.00000037 11.95871544 -0.00000316 0.00000107 -0.00000316 11.95871735" energy=-8.28434753 virial="2.70579564 -1.05951720 0.76358670 -1.05951720 0.40552496 -0.55183791 0.76358670 -0.55183791 3.33678588" stress="0.00082130 -0.00030976 0.00022324 -0.00030976 0.00014879 -0.00016133 0.00022324 -0.00016133 0.00100577" Properties=species:S:1:pos:R:3:vel:R:3:forces:R:3
Au 6.08110378 6.19805985 3.77687513 0.00082355 -0.00098756 -0.00054022 -0.44721872 0.20706798 -0.28251491
Au 9.29156203 5.38723075 6.44815630 0.00078408 -0.00144460 0.00021568 0.83575975 -0.36977785 1.03960697
Au 8.64783945 6.14297563 4.12658178 -0.00041985 0.00056005 -0.00122353 0.27611049 -0.02627325 -1.16815365
Au 7.11334219 6.74970196 6.13227534 -0.00118777 0.00187211 0.00154807 -0.66465152 0.18898313 0.41106160
4
Time=3750.00000000 pbc="T T T" Lattice="23.91741943 -0.00000075 0.00000215 -0.00000037 11.95871544 -0.00000316 0.00000107 -0.00000316 11.95871735" energy=-8.34045410 virial="2.29499954 -0.74254591 0.06682079 -0.74254591 0.20160222 0.05822271 0.06682079 0.05822271 3.89569223" stress="0.00070120 -0.00021709 0.00001954 -0.00021709 0.00008917 0.00001702 0.00001954 0.00001702 0.00116917" Properties=species:S:1:pos:R:3:vel:R:3:forces:R:3
Au 6.04792328 6.29189584 3.74142593 -0.00076640 0.00084723 -0.00050297 -0.40804551 0.15858687 -0.39779597
Au 9.38541917 5.43417895 6.49297603 0.00067640 0.00041908 0.00188904 0.44917244 -0.09195007 0.75486933
Au 8.60534802 6.06885625 4.15944324 0.00070471 -0.00069549 -0.00274215 0.55553092 -0.24227306 -1.37639093
Au 7.09515698 6.68303715 6.09004335 -0.00061472 -0.00057081 0.00135608 -0.59665784 0.17563625 1.01931758
4
Time=4000.00000000 pbc="T T T" Lattice="23.91741943 -0.00000075 0.00000215 -0.00000037 11.95871544 -0.00000316 0.00000107 -0.00000316 11.95871735" energy=-8.39765930 virial="-3.68480340 1.08770689 -0.70213728 1.08770689 -0.37277186 0.21833120 -0.70213728 0.21833120 -1.80832405" stress="-0.00104705 0.00031800 -0.00020528 0.00031800 -0.00007875 0.00006383 -0.00020528 0.00006383 -0.00049845" Properties=species:S:1:pos:R:3:vel:R:3:forces:R:3
Au 6.03446390 6.68244606 3.65196853 -0.00005447 0.00133674 -0.00141313 0.80989477 -0.35895555 0.56225328
Au 9.58562289 5.76109196 6.54895974 0.00165735 0.00092408 0.00015872 -0.62805227 0.07011712 -0.17812842
Au 8.59227221 5.73314860 4.12536300 -0.00045578 -0.00115708 0.00002094 -0.77400260 0.34864058 0.16229107
Au 6.92148845 6.30128158 6.15759728 -0.00114709 -0.00110374 0.00123346 0.59216011 -0.05980215 -0.54641592
4
Time=4250.00000000 pbc="T T T" Lattice="23.91741943 -0.00000075 0.00000215 -0.00000037 11.95871544 -0.00000316 0.00000107 -0.00000316 11.95871735" energy=-8.21192932 virial="-3.73312252 1.06631085 0.36577137 1.06631085 -0.62466767 -0.48325377 0.36577137 -0.48325377 -2.34962907" stress="-0.00106118 0.00031175 0.00010694 0.00031175 -0.00015239 -0.00014128 0.00010694 -0.00014128 -0.00065670" Properties=species:S:1:pos:R:3:vel:R:3:forces:R:3
Au 6.13753962 6.79668449 3.77742428 -0.00018282 -0.00027262 0.00172239 0.51402468 -0.40204389 0.02959271
Au 9.51350063 5.92276971 6.51929258 -0.00036896 -0.00011431 0.00010703 -0.71056327 -0.13407811 -0.49418268
Au 8.63353866 5.54087572 3.98194428 0.00063975 -0.00017907 -0.00008614 -0.82620384 0.63744821 0.95470448
Au 6.84926854 6.21763827 6.20522741 -0.00008797 0.00056599 -0.00174328 1.02274243 -0.10132620 -0.49011451
4
Time=4500.00000000 pbc="T T T" Lattice="23.91741943 -0.00000075 0.00000215 -0.00000037 11.95871544 -0.00000316 0.00000107 -0.00000316 11.95871735" energy=-8.30255890 virial="-2.03592193 0.51839015 -1.71265787 0.51839015 -0.13119246 0.45813145 -1.71265787 0.45813145 -0.86476425" stress="-0.00056499 0.00015156 -0.00050071 0.00015156 -0.00000812 0.00013394 -0.00050071 0.00013394 -0.00022259" Properties=species:S:1:pos:R:3:vel:R:3:forces:R:3
Au 6.05123409 6.55912926 3.51928527 0.00013362 -0.00193765 0.00044199 0.47086747 -0.11350132 0.67883280
Au 9.68712974 5.62958789 6.51192282 -0.00148499 -0.00158971 -0.00292050 -0.65855749 0.17988140 -0.11989849
Au 8.47683367 5.89325504 4.24669916 0.00143105 0.00202851 0.00311353 0.12560719 -0.05009728 -0.50821413
Au 6.91864996 6.39599600 6.20598131 -0.00007968 0.00149885 -0.00063503 0.06208283 -0.01628280 -0.05072018
4
Time=4750.00000000 pbc="T T T" Lattice="23.91741943 -0.00000075 0.00000215 -0.00000037 11.95871544 -0.00000316 0.00000107 -0.00000316 11.95871735" energy=-8.30562592 virial="1.25279858 -0.55975760 1.42189296 -0.55975760 0.14562926 0.12656975 1.42189296 0.12656975 2.47758888" stress="0.00039650 -0.00016365 0.00041570 -0.00016365 0.00007281 0.00003700 0.00041570 0.00003700 0.00075458" Properties=species:S:1:pos:R:3:vel:R:3:forces:R:3
Au 5.99116789 6.30849087 3.83000881 -0.00021511 -0.00010765 0.00043143 -0.22186898 0.06123975 -1.10545930
Au 9.32677119 5.46485680 6.55738926 0.00180213 -0.00122268 0.00144815 0.66748595 -0.10330283 0.08984767
Au 8.74335538 6.19236086 4.03981739 -0.00045963 0.00056446 -0.00029307 -0.29434140 -0.15601288 0.01432217
Au 7.07255298 6.51225966 6.05667308 -0.00112740 0.00076588 -0.00158651 -0.15127557 0.19807596 1.00128947
4
Time=5000.00000000 pbc="T T T" Lattice="23.91741943 -0.00000075 0.00000215 -0.00000037 11.95871544 -0.00000316 0.00000107 -0.00000316 11.95871735" energy=-8.39569092 virial="0.32960465 0.09688257 1.14839148 0.09688257 -0.10939774 -0.43697180 1.14839148 -0.43697180 -0.33526506" stress="0.00012660 0.00002832 0.00033574 0.00002832 -0.00000175 -0.00012775 0.00033574 -0.00012775 -0.00006779" Properties=species:S:1:pos:R:3:vel:R:3:forces:R:3
Au 6.13562006 6.41092293 3.69611156 -0.00027127 0.00098371 0.00077411 -0.54523797 0.19164305 0.07571268
Au 9.46726107 5.56810795 6.44416284 0.00052153 0.00069416 0.00019460 -0.10929243 0.10805788 0.40936249
Au 8.60862466 5.99985718 4.08056433 0.00103501 -0.00116883 -0.00080318 0.10602888 -0.01621691 0.09853727
Au 6.92234165 6.49908014 6.26304981 -0.00128527 -0.00050904 -0.00016553 0.54850153 -0.28348402 -0.58361243
4
Time=5250.00000000 pbc="T T T" Lattice="23.91741943 -0.00000075 0.00000215 -0.00000037 11.95871544 -0.00000316 0.00000107 -0.00000316 11.95871735" energy=-8.31809235 virial="-2.48655991 0.35062675 -2.00126814 0.35062675 -0.14938199 0.30652829 -2.00126814 0.30652829 -2.36798788" stress="-0.00069674 0.00010251 -0.00058509 0.00010251 -0.00001344 0.00008962 -0.00058509 0.00008962 -0.00066207" Properties=species:S:1:pos:R:3:vel:R:3:forces:R:3
Au 6.04867551 6.72522554 3.66614013 0.00094535 0.00067081 -0.00022767 0.25956087 -0.19511060 0.34567985
Au 9.62279569 5.82839157 6.66769024 0.00032014 0.00077404 -0.00089861 -1.06201223 0.01488766 -0.91479402
Au 8.48873871 5.76807348 4.04145987 -0.00023732 -0.00059737 0.00035015 0.37420766 0.08627614 0.48967470
Au 6.97363755 6.15627759 6.10859831 -0.00102816 -0.00084748 0.00077613 0.42824370 0.09394680 0.07943948
4
Time=5500.00000000 pbc="T T T" Lattice="23.91741943 -0.00000075 0.00000215 -0.00000037 11.95871544 -0.00000316 0.00000107 -0.00000316 11.95871735" energy=-8.26658630 virial="-1.77275398 0.27695480 0.30376373 0.27695480 -0.24930746 -0.43242029 0.30376373 -0.43242029 -2.85928365" stress="-0.00048805 0.00008097 0.00008881 0.00008097 -0.00004265 -0.00012642 0.00008881 -0.00012642 -0.00080571" Properties=species:S:1:pos:R:3:vel:R:3:forces:R:3
Au 6.16492879 6.76433709 3.78779702 -0.00118382 -0.00005164 0.00016451 0.08416476 -0.18528775 -0.02798985
Au 9.49145784 5.93365959 6.58321455 -0.00186308 -0.00031224 0.00007104 -0.46610119 -0.17556619 -0.64889121
Au 8.58027363 5.66131964 3.90946791 0.00009273 0.00018425 0.00111425 -0.29822054 0.35455249 1.16848862
Au 6.89718720 6.11865188 6.20340907 0.00295417 0.00017963 -0.00134980 0.68015697 0.00630145 -0.49160756
4
Time=5750.00000000 pbc="T T T" Lattice="23.91741943 -0.00000075 0.00000215 -0.00000037 11.95871544 -0.00000316 0.00000107 -0.00000316 11.95871735" energy=-8.44135284 virial="2.02220366 -0.54282753 0.40921357 -0.54282753 0.14335446 -0.06267528 0.40921357 -0.06267528 1.51607786" stress="0.00062144 -0.00015870 0.00011964 -0.00015870 0.00007214 -0.00001832 0.00011964 -0.00001832 0.00047347" Properties=species:S:1:pos:R:3:vel:R:3:forces:R:3
Au 6.13380670 6.57661452 3.64004625 0.00151990 -0.00168139 0.00040022 -0.65902351 0.15603304 0.04706198
Au 9.54427132 5.70855349 6.47248332 -0.00195784 -0.00081816 -0.00108396 0.17964794 -0.05600461 0.60765387
Au 8.50984395 5.90655719 4.16719274 -0.00082715 0.00169241 0.00025822 0.65234262 -0.17302104 -0.72347855
Au 6.94592548 6.28624300 6.20416624 0.00126510 0.00080714 0.00042552 -0.17296705 0.07299260 0.06876270
4
Time=6000.00000000 pbc="T T T" Lattice="23.91741943 -0.00000075 0.00000215 -0.00000037 11.95871544 -0.00000316 0.00000107 -0.00000316 11.95871735" energy=-8.38430786 virial="1.02215017 -0.70812894 -0.90937239 -0.70812894 0.17616035 0.03426413 -0.90937239 0.03426413 1.24753172" stress="0.00032907 -0.00020703 -0.00026586 -0.00020703 0.00008173 0.00001002 -0.00026586 0.00001002 0.00039496" Properties=species:S:1:pos:R:3:vel:R:3:forces:R:3
Au 5.96804447 6.34632140 3.72231090 -0.00118326 -0.00077622 -0.00236356 0.42919497 0.11407215 0.15617503
Au 9.40381721 5.47678440 6.55180125 0.00112570 -0.00127193 0.00062614 0.60220817 -0.12829695 0.20022844
Au 8.65416337 6.15714710 4.11365591 -0.00010201 0.00071153 -0.00039295 0.08320949 -0.18336376 -0.77026411
Au 7.10782239 6.49771530 6.09612049 0.00015957 0.00133662 0.00213037 -1.11461263 0.19758857 0.41386064
4
Time=6250.00000000 pbc="T T T" Lattice="23.91741943 -0.00000075 0.00000215 -0.00000037 11.95871544 -0.00000316 0.00000107 -0.00000316 11.95871735" energy=-8.43729401 virial="-1.84425590 0.56637872 0.22374674 0.56637872 -0.28395438 -0.02244314 0.22374674 -0.02244314 -1.65054848" stress="-0.00050895 0.00016559 0.00006541 0.00016559 -0.00005278 -0.00000656 0.00006541 -0.00000656 -0.00045232" Properties=species:S:1:pos:R:3:vel:R:3:forces:R:3
Au 6.05432690 6.39060533 3.71981280 -0.00036616 0.00066499 0.00021243 0.18652999 0.08984200 0.12764231
Au 9.45821870 5.51136082 6.51515084 0.00025684 0.00034427 0.00182475 -0.41515722 0.29429888 -0.25737856
Au 8.65253399 6.06069583 4.04956283 -0.00035708 -0.00017746 -0.00153927 -0.38020221 -0.04995273 0.58274090
Au 6.96876787 6.51530621 6.19936209 0.00046639 -0.00083180 -0.00049791 0.60882944 -0.33418814 -0.45300466
4
Time=6500.00000000 pbc="T T T" Lattice="23.91741943 -0.00000075 0.00000215 -0.00000037 11.95871544 -0.00000316 0.00000107 -0.00000316 11.95871735" energy=-8.47415161 virial="-0.93819678 0.28282964 0.07266448 0.28282964 -0.10674485 0.01733856 0.07266448 0.01733856 1.68585684" stress="-0.00024406 0.00008269 0.00002124 0.00008269 -0.00000098 0.00000507 0.00002124 0.00000507 0.00052311" Properties=species:S:1:pos:R:3:vel:R:3:forces:R:3
Au 6.05901619 6.66518785 3.71290353 0.00220366 0.00045424 0.00010708 0.29891054 -0.14776711 -0.07265580
Au 9.53530115 5.76688333 6.51965309 -0.00085416 0.00121713 -0.00169596 -0.00326857 -0.04465824 0.43628641
Au 8.60440517 5.84450831 4.13553114 -0.00142095 -0.00051908 0.00100478 -0.40006451 0.16144017 -0.67418962
Au 6.93512495 6.20138870 6.11580079 0.00007145 -0.00115229 0.00058410 0.10442254 0.03098517 0.31055901
4
Time=6750.00000000 pbc="T T T" Lattice="23.91741943 -0.00000075 0.00000215 -0.00000037 11.95871544 -0.00000316 0.00000107 -0.00000316 11.95871735" energy=-8.15670013 virial="2.55912649 -0.76077468 0.71154579 -0.76077468 0.32375925 -0.91277723 0.71154579 -0.91277723 6.55045780" stress="0.00077842 -0.00022242 0.00020803 -0.00022242 0.00012489 -0.00026686 0.00020803 -0.00026686 0.00194532" Properties=species:S:1:pos:R:3:vel:R:3:forces:R:3
Au 6.11563273 6.81752234 3.84084577 0.00044176 -0.00010235 0.00072353 -0.65905821 0.39773396 -1.83488691
Au 9.48803527 5.95767110 6.53346512 0.00023740 0.00030419 0.00075227 0.46573738 -0.15854940 0.47032672
Au 8.57083544 5.64256708 4.11957694 -0.00094890 -0.00009248 -0.00020943 0.51217499 -0.01506652 -1.25714611
Au 6.95934401 6.06020767 5.99000072 0.00026974 -0.00010935 -0.00126637 -0.31885416 -0.22411804 2.62170631
4
Time=7000.00000000 pbc="T T T" Lattice="23.91741943 -0.00000075 0.00000215 -0.00000037 11.95871544 -0.00000316 0.00000107 -0.00000316 11.95871735" energy=-8.36004639 virial="-2.22081436 0.58720065 0.86912374 0.58720065 -0.20369432 0.05039129 0.86912374 0.05039129 2.04725666" stress="-0.00061904 0.00017167 0.00025410 0.00017167 -0.00002932 0.00001473 0.00025410 0.00001473 0.00062877" Properties=species:S:1:pos:R:3:vel:R:3:forces:R:3
Au 6.09214788 6.68204625 3.68214355 -0.00177048 -0.00107659 0.00086666 0.45858115 -0.23858783 0.16014259
Au 9.59121596 5.79488794 6.46035770 0.00178521 -0.00174038 0.00044305 -0.02853514 -0.02472154 1.05107786
Au 8.60854561 5.83315568 4.18161518 0.00262879 0.00086125 -0.00047863 -1.01806629 0.26959932 -1.07579526
Au 6.84193801 6.16787832 6.15977212 -0.00264353 0.00195572 -0.00083108 0.58802028 -0.00628995 -0.13542519
4
Time=7250.00000000 pbc="T T T" Lattice="23.91741943 -0.00000075 0.00000215 -0.00000037 11.95871544 -0.00000316 0.00000107 -0.00000316 11.95871735" energy=-8.36566925 virial="-2.32215629 0.65828274 -0.40465358 0.65828274 -0.28127666 0.27039871 -0.40465358 0.27039871 -3.83624513" stress="-0.00064867 0.00019245 -0.00011830 0.00019245 -0.00005200 0.00007905 -0.00011830 0.00007905 -0.00109133" Properties=species:S:1:pos:R:3:vel:R:3:forces:R:3
Au 6.05300578 6.41152016 3.66211036 0.00013957 -0.00068408 0.00136406 0.24359272 0.06288932 0.51563740
Au 9.50588780 5.54246505 6.54863336 0.00094505 -0.00103832 -0.00005343 -0.69536064 0.37418348 -0.65630023
Au 8.62196158 6.11808889 4.02776580 0.00121198 0.00052193 -0.00083755 -0.19637454 -0.14402246 1.03949128
Au 6.95299229 6.40589409 6.24537903 -0.00229660 0.00120048 -0.00047307 0.64814247 -0.29305033 -0.89882845
4
Time=7500.00000000 pbc="T T T" Lattice="23.91741943 -0.00000075 0.00000215 -0.00000037 11.95871544 -0.00000316 0.00000107 -0.00000316 11.95871735" energy=-8.32546234 virial="-0.06222846 0.47591666 -1.39001260 0.47591666 -0.33449328 0.60732971 -1.39001260 0.60732971 -2.14545237" stress="0.00001204 0.00013914 -0.00040638 0.00013914 -0.00006756 0.00017756 -0.00040638 0.00017756 -0.00059701" Properties=species:S:1:pos:R:3:vel:R:3:forces:R:3
Au 6.02461529 6.38500249 3.66013573 -0.00028862 0.00074463 0.00087211 -0.37537123 0.12410702 0.22248261
Au 9.52063479 5.49581076 6.63695698 0.00054551 0.00046943 0.00007329 -0.74246036 0.44398605 -0.81252689
Au 8.54328070 6.18031974 4.03851010 0.00006216 -0.00060740 0.00104279 0.92956517 -0.33139240 0.56632753
Au 7.04531667 6.41683521 6.14828573 -0.00031905 -0.00060667 -0.00198819 0.18826642 -0.23670067 0.02371675
4
Time=7750.00000000 pbc="T T T" Lattice="23.91741943 -0.00000075 0.00000215 -0.00000037 11.95871544 -0.00000316 0.00000107 -0.00000316 11.95871735" energy=-8.38473511 virial="3.53722210 -0.94805168 0.96260662 -0.94805168 0.24509423 -0.23571934 0.96260662 -0.23571934 -0.87096189" stress="0.00106437 -0.00027717 0.00028143 -0.00027717 0.00010189 -0.00006891 0.00028143 -0.00006891 -0.00022440" Properties=species:S:1:pos:R:3:vel:R:3:forces:R:3
Au 6.18597706 6.59167975 3.74186558 0.00013458 0.00154296 -0.00140501 -1.39816146 0.34304281 -0.34904441
Au 9.45374463 5.77342608 6.52994150 0.00006109 0.00134313 -0.00021114 0.23615800 -0.08682526 -0.21087147
Au 8.56925911 5.94163425 3.99915499 -0.00127070 -0.00117520 0.00121346 1.15965029 -0.28886681 0.75284311
Au 6.92486664 6.17122810 6.21292648 0.00107503 -0.00171090 0.00040269 0.00235317 0.03264926 -0.19292724
4
Time=8000.00000000 pbc="T T T" Lattice="23.91741943 -0.00000075 0.00000215 -0.00000037 11.95871544 -0.00000316 0.00000107 -0.00000316 11.95871735" energy=-8.44961548 virial="1.28758335 -0.28723494 0.83918110 -0.28723494 0.00142245 -0.13821320 0.83918110 -0.13821320 0.03996648" stress="0.00040667 -0.00008398 0.00024534 -0.00008398 0.00003065 -0.00004041 0.00024534 -0.00004041 0.00004192" Properties=species:S:1:pos:R:3:vel:R:3:forces:R:3
Au 6.17583452 6.71852685 3.74467076 0.00032053 -0.00023029 -0.00017410 -0.32609179 -0.01349592 -0.10525360
Au 9.46957601 5.89698964 6.50502078 -0.00238861 -0.00002444 -0.00095996 0.38495905 -0.15327457 0.21036559
Au 8.58159418 5.80165599 4.05013090 0.00100765 0.00014049 -0.00081577 0.03741460 0.05714357 0.13323108
Au 6.90684274 6.06079570 6.18406611 0.00106043 0.00011424 0.00194983 -0.09628187 0.10962692 -0.23834306
4
Time=8250.00000000 pbc="T T T" Lattice="23.91741943 -0.00000075 0.00000215 -0.00000037 11.95871544 -0.00000316 0.00000107 -0.00000316 11.95871735" energy=-8.38681793 virial="0.49155302 -0.19498617 -1.89545885 -0.19498617 0.04546810 0.18079519 -1.89545885 0.18079519 0.76806369" stress="0.00017394 -0.00005701 -0.00055415 -0.00005701 0.00004353 0.00005286 -0.00055415 0.00005286 0.00025478" Properties=species:S:1:pos:R:3:vel:R:3:forces:R:3
Au 5.99602502 6.45333753 3.60571170 -0.00070466 -0.00117254 -0.00122469 0.57294871 -0.02054331 0.61829916
Au 9.51631930 5.58705921 6.54364235 0.00048205 -0.00168289 0.00162240 0.27483495 -0.04254493 0.20328431
Au 8.57260628 6.10711074 4.17848337 -0.00103463 0.00177466 -0.00082900 0.27345149 -0.07326812 -1.14592540
Au 7.04889685 6.33046072 6.15605112 0.00125723 0.00108077 0.00043129 -1.12123515 0.13635635 0.32434194
4
Time=8500.00000000 pbc="T T T" Lattice="23.91741943 -0.00000075 0.00000215 -0.00000037 11.95871544 -0.00000316 0.00000107 -0.00000316 11.95871735" energy=-8.33798218 virial="-2.42365467 0.25512191 0.93619836 0.25512191 -0.19690460 -0.24492802 0.93619836 -0.24492802 0.31226277" stress="-0.00067835 0.00007459 0.00027371 0.00007459 -0.00002733 -0.00007161 0.00027371 -0.00007161 0.00012153" Properties=species:S:1:pos:R:3:vel:R:3:forces:R:3
Au 6.01633279 6.27539358 3.77720907 -0.00052706 0.00022850 -0.00122976 0.43161250 0.13375516 -0.17384763
Au 9.40123154 5.45657344 6.45625284 0.00186175 -0.00062492 0.00115947 -0.11657425 0.16527110 0.25354623
Au 8.76674450 6.25358311 4.07590947 -0.00016019 -0.00001673 -0.00102733 -0.95479936 -0.01389552 0.08383488
Au 6.94953861 6.49241806 6.17451717 -0.00117450 0.00041314 0.00109762 0.63976111 -0.28513074 -0.16353348
4
Time=8750.00000000 pbc="T T T" Lattice="23.91741943 -0.00000075 0.00000215 -0.00000037 11.95871544 -0.00000316 0.00000107 -0.00000316 11.95871735" energy=-8.46183014 virial="-2.27652753 0.54419213 -0.19447714 0.54419213 -0.14361985 0.15512372 -0.19447714 0.15512372 -1.69379625" stress="-0.00063533 0.00015910 -0.00005686 0.00015910 -0.00001176 0.00004535 -0.00005686 0.00004535 -0.00046496" Properties=species:S:1:pos:R:3:vel:R:3:forces:R:3
Au 6.05173321 6.49642914 3.70025599 0.00134315 0.00085016 0.00191998 0.11894334 0.00430554 0.03966857
Au 9.54508728 5.64097615 6.54992548 -0.00002591 0.00108658 0.00014019 -0.71344854 0.23237446 -0.49387917