2
Time=250.00000000 pbc="T T T" Lattice="23.91741943 -0.00000075 0.00000215 -0.00000037 11.95871544 -0.00000316 0.00000107 -0.00000316 11.95871735" energy=-3.07310486 virial="-0.20798953 0.46280247 0.14240776 0.46280247 -1.02979374 -0.31687519 0.14240776 -0.31687519 -0.09750471" stress="-0.00004569 0.00013530 0.00004163 0.00013530 -0.00028595 -0.00009264 0.00004163 -0.00009264 -0.00001339" Properties=species:S:1:pos:R:3:vel:R:3:forces:R:3
Au 4.33222388 6.55128034 5.62601000 -0.00027940 -0.00032738 0.00166284 0.20673300 -0.46000654 -0.14154743
Au 5.33830183 4.31263020 4.93716168 0.00027940 0.00032738 -0.00166284 -0.20673300 0.46000654 0.14154743
2
Time=500.00000000 pbc="T T T" Lattice="23.91741943 -0.00000075 0.00000215 -0.00000037 11.95871544 -0.00000316 0.00000107 -0.00000316 11.95871735" energy=-3.07766724 virial="0.18009290 -0.30643040 -0.26951665 -0.30643040 0.52139509 0.45858580 -0.26951665 0.45858580 0.40334237" stress="0.00006777 -0.00008959 -0.00007880 -0.00008959 0.00016755 0.00013407 -0.00007880 0.00013407 0.00013304" Properties=species:S:1:pos:R:3:vel:R:3:forces:R:3
Au 4.33592919 6.28157769 6.02885870 0.00021455 -0.00134500 0.00119829 -0.18033320 0.30683932 0.26987627
Au 5.33459652 4.58233285 4.53431298 -0.00021455 0.00134500 -0.00119829 0.18033320 -0.30683932 -0.26987627
2
Time=750.00000000 pbc="T T T" Lattice="23.91741943 -0.00000075 0.00000215 -0.00000037 11.95871544 -0.00000316 0.00000107 -0.00000316 11.95871735" energy=-3.08438110 virial="-0.03396329 0.04222777 0.07495487 0.04222777 -0.05250332 -0.09319413 0.07495487 -0.09319413 -0.16542029" stress="0.00000519 0.00001235 0.00002191 0.00001235 -0.00000023 -0.00002725 0.00002191 -0.00002725 -0.00003325" Properties=species:S:1:pos:R:3:vel:R:3:forces:R:3
Au 4.37376911 6.00574720 6.30007193 0.00009953 -0.00077880 0.00079597 0.03679714 -0.04575118 -0.08120894
Au 5.29675660 4.85816334 4.26309975 -0.00009953 0.00077880 -0.00079597 -0.03679714 0.04575118 0.08120894
2
Time=1000.00000000 pbc="T T T" Lattice="23.91741943 -0.00000075 0.00000215 -0.00000037 11.95871544 -0.00000316 0.00000107 -0.00000316 11.95871735" energy=-3.08451843 virial="0.01558810 -0.00958393 -0.04959196 -0.00958393 0.00589241 0.03049025 -0.04959196 0.03049025 0.15777349" stress="0.00001967 -0.00000280 -0.00001450 -0.00000280 0.00001684 0.00000891 -0.00001450 0.00000891 0.00006124" Properties=species:S:1:pos:R:3:vel:R:3:forces:R:3
Au 4.46659433 5.65862092 6.45448006 0.00053812 -0.00147616 0.00006379 -0.02114108 0.01299801 0.06725818
Au 5.20393138 5.20528962 4.10869162 -0.00053812 0.00147616 -0.00006379 0.02114108 -0.01299801 -0.06725818
2
Time=1250.00000000 pbc="T T T" Lattice="23.91741943 -0.00000075 0.00000215 -0.00000037 11.95871544 -0.00000316 0.00000107 -0.00000316 11.95871735" energy=-3.08245850 virial="-0.01615720 -0.01860479 0.09565109 -0.01860479 -0.02142320 0.11014107 0.09565109 0.11014107 -0.56626058" stress="0.00001039 -0.00000544 0.00002796 -0.00000544 0.00000885 0.00003220 0.00002796 0.00003220 -0.00015044" Properties=species:S:1:pos:R:3:vel:R:3:forces:R:3
Au 4.62876864 5.19417970 6.50404495 0.00070723 -0.00209602 0.00032563 0.03912265 0.04504919 -0.23160720
Au 5.04175707 5.66973084 4.05912673 -0.00070723 0.00209602 -0.00032563 -0.03912265 -0.04504919 0.23160720
2
Time=1500.00000000 pbc="T T T" Lattice="23.91741943 -0.00000075 0.00000215 -0.00000037 11.95871544 -0.00000316 0.00000107 -0.00000316 11.95871735" energy=-3.08428955 virial="-0.00001251 0.00103825 -0.00155807 0.00103825 -0.08617979 0.12932742 -0.00155807 0.12932742 -0.19407761" stress="0.00001511 0.00000030 -0.00000046 0.00000030 -0.00001008 0.00003781 -0.00000046 0.00003781 -0.00004162" Properties=species:S:1:pos:R:3:vel:R:3:forces:R:3
Au 4.84366185 4.73479695 6.32778958 0.00076670 -0.00123952 -0.00124823 -0.00074463 0.06180793 -0.09275323
Au 4.82686386 6.12911359 4.23538210 -0.00076670 0.00123952 0.00124823 0.00074463 -0.06180793 0.09275323
2
Time=1750.00000000 pbc="T T T" Lattice="23.91741943 -0.00000075 0.00000215 -0.00000037 11.95871544 -0.00000316 0.00000107 -0.00000316 11.95871735" energy=-3.08218384 virial="0.02021449 -0.09475863 0.06334077 -0.09475863 0.44419694 -0.29692048 0.06334077 -0.29692048 0.19847441" stress="0.00002103 -0.00002770 0.00001852 -0.00002770 0.00014498 -0.00008681 0.00001852 -0.00008681 0.00007314" Properties=species:S:1:pos:R:3:vel:R:3:forces:R:3
Au 5.05233464 4.41439486 5.96176681 0.00065959 -0.00100415 -0.00117031 0.04656175 -0.21826559 0.14589822
Au 4.61819107 6.44951568 4.60140487 -0.00065959 0.00100415 0.00117031 -0.04656175 0.21826559 -0.14589822
2
Time=2000.00000000 pbc="T T T" Lattice="23.91741943 -0.00000075 0.00000215 -0.00000037 11.95871544 -0.00000316 0.00000107 -0.00000316 11.95871735" energy=-3.08139038 virial="-0.06804988 0.20775771 -0.04075880 0.20775771 -0.63428974 0.12443766 -0.04075880 0.12443766 -0.02441271" stress="-0.00000478 0.00006074 -0.00001192 0.00006074 -0.00017032 0.00003638 -0.00001192 0.00003638 0.00000798" Properties=species:S:1:pos:R:3:vel:R:3:forces:R:3
Au 5.22215697 4.25075760 5.51331825 0.00062602 -0.00031894 -0.00209392 -0.08794381 0.26849431 -0.05267435
Au 4.44836874 6.61315294 5.04985343 -0.00062602 0.00031894 0.00209392 0.08794381 -0.26849431 0.05267435
2
Time=2250.00000000 pbc="T T T" Lattice="23.91741943 -0.00000075 0.00000215 -0.00000037 11.95871544 -0.00000316 0.00000107 -0.00000316 11.95871735" energy=-3.08467102 virial="-0.01575971 0.03833461 0.00572548 0.03833461 -0.09324551 -0.01392671 0.00572548 -0.01392671 -0.00208006" stress="0.00001051 0.00001121 0.00000167 0.00001121 -0.00001215 -0.00000407 0.00000167 -0.00000407 0.00001451" Properties=species:S:1:pos:R:3:vel:R:3:forces:R:3
Au 5.30782303 4.28249574 5.10990504 0.00004377 0.00034985 -0.00072342 -0.01667482 0.04056060 0.00605794
Au 4.36270268 6.58141480 5.45326664 -0.00004377 -0.00034985 0.00072342 0.01667482 -0.04056060 -0.00605794
2
Time=2500.00000000 pbc="T T T" Lattice="23.91741943 -0.00000075 0.00000215 -0.00000037 11.95871544 -0.00000316 0.00000107 -0.00000316 11.95871735" energy=-3.08473206 virial="-0.01052022 0.02055907 0.01162124 0.02055907 -0.04017758 -0.02271086 0.01162124 -0.02271086 -0.01283771" stress="0.00001204 0.00000601 0.00000340 0.00000601 0.00000337 -0.00000664 0.00000340 -0.00000664 0.00001136" Properties=species:S:1:pos:R:3:vel:R:3:forces:R:3
Au 5.34548387 4.43485546 4.71795785 0.00016087 0.00072025 -0.00178187 -0.01030949 0.02014720 0.01138845
Au 4.32504184 6.42905508 5.84521383 -0.00016087 -0.00072025 0.00178187 0.01030949 -0.02014720 -0.01138845
2
Time=2750.00000000 pbc="T T T" Lattice="23.91741943 -0.00000075 0.00000215 -0.00000037 11.95871544 -0.00000316 0.00000107 -0.00000316 11.95871735" energy=-3.08436584 virial="-0.03873307 0.06058037 0.06622064 0.06058037 -0.09475088 -0.10357249 0.06622064 -0.10357249 -0.11321539" stress="0.00000379 0.00001771 0.00001936 0.00001771 -0.00001259 -0.00003028 0.00001936 -0.00003028 -0.00001798" Properties=species:S:1:pos:R:3:vel:R:3:forces:R:3
Au 5.33322027 4.65312402 4.43024299 -0.00027517 0.00139501 -0.00102520 -0.03889194 0.06082886 0.06649226
Au 4.33730544 6.21078652 6.13292869 0.00027517 -0.00139501 0.00102520 0.03889194 -0.06082886 -0.06649226
2
Time=3000.00000000 pbc="T T T" Lattice="23.91741943 -0.00000075 0.00000215 -0.00000037 11.95871544 -0.00000316 0.00000107 -0.00000316 11.95871735" energy=-3.08456421 virial="0.02416116 -0.02800056 -0.05648524 -0.02800056 0.03244987 0.06546062 -0.05648524 0.06546062 0.13205397" stress="0.00002218 -0.00000819 -0.00001651 -0.00000819 0.00002460 0.00001914 -0.00001651 0.00001914 0.00005372" Properties=species:S:1:pos:R:3:vel:R:3:forces:R:3
Au 5.28260559 4.91353000 4.23576516 -0.00029707 0.00164100 -0.00131605 0.02700520 -0.03129655 -0.06313413
Au 4.38792012 5.95038054 6.32740652 0.00029707 -0.00164100 0.00131605 -0.02700520 0.03129655 0.06313413
2
Time=3250.00000000 pbc="T T T" Lattice="23.91741943 -0.00000075 0.00000215 -0.00000037 11.95871544 -0.00000316 0.00000107 -0.00000316 11.95871735" energy=-3.08171082 virial="-0.04715037 0.01292016 0.17491966 0.01292016 -0.00354039 -0.04793163 0.17491966 -0.04793163 -0.64892352" stress="0.00000133 0.00000378 0.00005114 0.00000378 0.00001408 -0.00001401 0.00005114 -0.00001401 -0.00017460" Properties=species:S:1:pos:R:3:vel:R:3:forces:R:3
Au 5.16338291 5.34204355 4.06431346 -0.00056730 0.00159694 -0.00013040 -0.07184927 0.01968816 0.26654828
Au 4.50714280 5.52186699 6.49885822 0.00056730 -0.00159694 0.00013040 0.07184927 -0.01968816 -0.26654828
2
Time=3500.00000000 pbc="T T T" Lattice="23.91741943 -0.00000075 0.00000215 -0.00000037 11.95871544 -0.00000316 0.00000107 -0.00000316 11.95871735" energy=-3.07824707 virial="0.01976693 0.03663637 -0.13853441 0.03663637 0.06790245 -0.25676194 -0.13853441 -0.25676194 0.97090280" stress="0.00002090 0.00001071 -0.00004050 0.00001071 0.00003497 -0.00007507 -0.00004050 -0.00007507 0.00029897" Properties=species:S:1:pos:R:3:vel:R:3:forces:R:3
Au 5.00435654 5.74535625 4.09651187 -0.00063453 0.00139166 0.00046585 0.05844966 0.10833158 -0.40963805
Au 4.66616917 5.11855429 6.46665981 0.00063453 -0.00139166 -0.00046585 -0.05844966 -0.10833158 0.40963805
2
Time=3750.00000000 pbc="T T T" Lattice="23.91741943 -0.00000075 0.00000215 -0.00000037 11.95871544 -0.00000316 0.00000107 -0.00000316 11.95871735" energy=-3.06137085 virial="-0.00264776 -0.03288023 0.06192777 -0.03288023 -0.40831146 0.76902792 0.06192777 0.76902792 -1.44841504" stress="0.00001434 -0.00000961 0.00001811 -0.00000961 -0.00010426 0.00022483 0.00001811 0.00022483 -0.00040834" Properties=species:S:1:pos:R:3:vel:R:3:forces:R:3
Au 4.88371302 6.03361629 4.14839556 -0.00083900 0.00217086 0.00010314 -0.02732454 -0.33932017 0.63908738
Au 4.78681269 4.83029425 6.41477612 0.00083900 -0.00217086 -0.00010314 0.02732454 0.33932017 -0.63908738
2
Time=4000.00000000 pbc="T T T" Lattice="23.91741943 -0.00000075 0.00000215 -0.00000037 11.95871544 -0.00000316 0.00000107 -0.00000316 11.95871735" energy=-3.08230591 virial="0.00247200 -0.02604598 0.03016273 -0.02604598 0.27443027 -0.31780589 0.03016273 -0.31780589 0.36803770" stress="0.00001584 -0.00000761 0.00000882 -0.00000761 0.00009535 -0.00009291 0.00000882 -0.00009291 0.00012272" Properties=species:S:1:pos:R:3:vel:R:3:forces:R:3
Au 4.75828825 6.24298870 4.34236201 -0.00034754 -0.00033095 0.00195011 -0.01605726 0.16918552 -0.19592649
Au 4.91223746 4.62092184 6.22080967 0.00034754 0.00033095 -0.00195011 0.01605726 -0.16918552 0.19592649
2
Time=4250.00000000 pbc="T T T" Lattice="23.91741943 -0.00000075 0.00000215 -0.00000037 11.95871544 -0.00000316 0.00000107 -0.00000316 11.95871735" energy=-3.08416748 virial="-0.00731662 0.03764918 -0.02812225 0.03764918 -0.19373238 0.14470929 -0.02812225 0.14470929 -0.10809165" stress="0.00001298 0.00001101 -0.00000822 0.00001101 -0.00004152 0.00004231 -0.00000822 0.00004231 -0.00001649" Properties=species:S:1:pos:R:3:vel:R:3:forces:R:3
Au 4.64177688 6.42758024 4.53789641 -0.00067305 0.00169922 0.00014825 0.01890735 -0.09729183 0.07267258
Au 5.02874883 4.43633030 6.02527527 0.00067305 -0.00169922 -0.00014825 -0.01890735 0.09729183 -0.07267258
2
Time=4500.00000000 pbc="T T T" Lattice="23.91741943 -0.00000075 0.00000215 -0.00000037 11.95871544 -0.00000316 0.00000107 -0.00000316 11.95871735" energy=-3.03479004 virial="-0.16797734 0.60059574 -0.23667560 0.60059574 -2.14740521 0.84622385 -0.23667560 0.84622385 -0.33346971" stress="-0.00003399 0.00017559 -0.00006919 0.00017559 -0.00061270 0.00024740 -0.00006919 0.00024740 -0.00008238" Properties=species:S:1:pos:R:3:vel:R:3:forces:R:3
Au 4.50811081 6.60167386 4.82063713 -0.00026896 -0.00065349 0.00212526 0.25672673 -0.91791530 0.36172109
Au 5.16241490 4.26223668 5.74253455 0.00026896 0.00065349 -0.00212526 -0.25672673 0.91791530 -0.36172109
2
Time=4750.00000000 pbc="T T T" Lattice="23.91741943 -0.00000075 0.00000215 -0.00000037 11.95871544 -0.00000316 0.00000107 -0.00000316 11.95871735" energy=-3.05819702 virial="0.25523034 -0.70161852 0.03254373 -0.70161852 1.92872256 -0.08946147 0.03254373 -0.08946147 0.00414956" stress="0.00008974 -0.00020512 0.00000951 -0.00020512 0.00057900 -0.00002615 0.00000951 -0.00002615 0.00001633" Properties=species:S:1:pos:R:3:vel:R:3:forces:R:3
Au 4.41784830 6.57941186 5.22836243 -0.00019400 -0.00050401 0.00158358 -0.30572766 0.84043378 -0.03898251
Au 5.25267741 4.28449868 5.33480925 0.00019400 0.00050401 -0.00158358 0.30572766 -0.84043378 0.03898251
2
Time=5000.00000000 pbc="T T T" Lattice="23.91741943 -0.00000075 0.00000215 -0.00000037 11.95871544 -0.00000316 0.00000107 -0.00000316 11.95871735" energy=-3.07035828 virial="-0.22670631 0.51324248 0.14159045 0.51324248 -1.16193497 -0.32054815 0.14159045 -0.32054815 -0.08843096" stress="-0.00005116 0.00015005 0.00004140 0.00015005 -0.00032459 -0.00009372 0.00004140 -0.00009372 -0.00001074" Properties=species:S:1:pos:R:3:vel:R:3:forces:R:3
Au 4.33494999 6.56461877 5.59405854 -0.00063492 0.00046735 0.00190060 0.22656456 -0.51292154 -0.14150190
Au 5.33557572 4.29929177 4.96911314 0.00063492 -0.00046735 -0.00190060 -0.22656456 0.51292154 0.14150190
2
Time=5250.00000000 pbc="T T T" Lattice="23.91741943 -0.00000075 0.00000215 -0.00000037 11.95871544 -0.00000316 0.00000107 -0.00000316 11.95871735" energy=-3.04997253 virial="-0.36911155 0.65179700 0.51556711 0.65179700 -1.15097886 -0.91041657 0.51556711 -0.91041657 -0.72013360" stress="-0.00009280 0.00019056 0.00015073 0.00019056 -0.00032138 -0.00026617 0.00015073 -0.00026617 -0.00019542" Properties=species:S:1:pos:R:3:vel:R:3:forces:R:3
Au 4.31119915 6.35737561 6.01358746 0.00034607 -0.00199976 0.00166969 0.35216284 -0.62186807 -0.49189353
Au 5.35932656 4.50653493 4.54958422 -0.00034607 0.00199976 -0.00166969 -0.35216284 0.62186807 0.49189353
2
Time=5500.00000000 pbc="T T T" Lattice="23.91741943 -0.00000075 0.00000215 -0.00000037 11.95871544 -0.00000316 0.00000107 -0.00000316 11.95871735" energy=-3.07513428 virial="0.17832410 -0.22817135 -0.38354167 -0.22817135 0.29195264 0.49075407 -0.38354167 0.49075407 0.82492614" stress="0.00006725 -0.00006671 -0.00011213 -0.00006671 0.00010047 0.00014348 -0.00011213 0.00014348 0.00025629" Properties=species:S:1:pos:R:3:vel:R:3:forces:R:3
Au 4.37733543 6.01788825 6.26650195 0.00024229 -0.00120213 0.00086210 -0.19470780 0.24913481 0.41877997
Au 5.29319028 4.84602229 4.29666973 -0.00024229 0.00120213 -0.00086210 0.19470780 -0.24913481 -0.41877997
2
Time=5750.00000000 pbc="T T T" Lattice="23.91741943 -0.00000075 0.00000215 -0.00000037 11.95871544 -0.00000316 0.00000107 -0.00000316 11.95871735" energy=-3.05976868 virial="-0.19179193 0.15353707 0.55494559 0.15353707 -0.12291259 -0.44425625 0.55494559 -0.44425625 -1.60572422" stress="-0.00004096 0.00004489 0.00016224 0.00004489 -0.00002082 -0.00012988 0.00016224 -0.00012988 -0.00045433" Properties=species:S:1:pos:R:3:vel:R:3:forces:R:3
Au 4.42916034 5.75705662 6.45663552 0.00016792 -0.00080082 0.00054736 0.23613735 -0.18903733 -0.68325803
Au 5.24136537 5.10685392 4.10653616 -0.00016792 0.00080082 -0.00054736 -0.23613735 0.18903733 0.68325803
2
Time=6000.00000000 pbc="T T T" Lattice="23.91741943 -0.00000075 0.00000215 -0.00000037 11.95871544 -0.00000316 0.00000107 -0.00000316 11.95871735" energy=-3.05055237 virial="0.10882618 0.03768062 -0.50838716 0.03768062 0.01304676 -0.17602696 -0.50838716 -0.17602696 2.37495530" stress="0.00004693 0.00001102 -0.00014863 0.00001102 0.00001893 -0.00005146 -0.00014863 -0.00005146 0.00070946" Properties=species:S:1:pos:R:3:vel:R:3:forces:R:3
Au 4.58093491 5.34389527 6.46969121 0.00129608 -0.00250443 -0.00147581 -0.21394852 -0.07407880 0.99947169
Au 5.08959080 5.52001527 4.09348047 -0.00129608 0.00250443 0.00147581 0.21394852 0.07407880 -0.99947169
2
Time=6250.00000000 pbc="T T T" Lattice="23.91741943 -0.00000075 0.00000215 -0.00000037 11.95871544 -0.00000316 0.00000107 -0.00000316 11.95871735" energy=-3.08128357 virial="0.00626652 0.02488013 -0.06448634 0.02488013 0.09878220 -0.25603175 -0.06448634 -0.25603175 0.66360366" stress="0.00001695 0.00000727 -0.00001885 0.00000727 0.00004400 -0.00007485 -0.00001885 -0.00007485 0.00020913" Properties=species:S:1:pos:R:3:vel:R:3:forces:R:3
Au 4.72316237 4.98687984 6.43516809 0.00026659 -0.00158964 0.00136243 -0.02795047 -0.11097243 0.28762740
Au 4.94736334 5.87703070 4.12800359 -0.00026659 0.00158964 -0.00136243 0.02795047 0.11097243 -0.28762740
2
Time=6500.00000000 pbc="T T T" Lattice="23.91741943 -0.00000075 0.00000215 -0.00000037 11.95871544 -0.00000316 0.00000107 -0.00000316 11.95871735" energy=-2.91409302 virial="-0.00029491 -0.01921424 0.03101065 -0.01921424 -1.25185281 2.02041659 0.03101065 2.02041659 -3.26083273" stress="0.00001503 -0.00000562 0.00000907 -0.00000562 -0.00035087 0.00059069 0.00000907 0.00059069 -0.00093822" Properties=species:S:1:pos:R:3:vel:R:3:forces:R:3
Au 4.82440546 4.72457074 6.42326274 0.00071067 -0.00147330 -0.00065409 0.01358119 0.88484603 -1.42808932
Au 4.84612025 6.13933980 4.13990894 -0.00071067 0.00147330 0.00065409 -0.01358119 -0.88484603 1.42808932
2
Time=6750.00000000 pbc="T T T" Lattice="23.91741943 -0.00000075 0.00000215 -0.00000037 11.95871544 -0.00000316 0.00000107 -0.00000316 11.95871735" energy=-3.06629944 virial="0.04058987 -0.21310738 0.16259136 -0.21310738 1.11886889 -0.85364670 0.16259136 -0.85364670 0.65129420" stress="0.00002698 -0.00006230 0.00004754 -0.00006230 0.00034223 -0.00024957 0.00004754 -0.00024957 0.00020553" Properties=species:S:1:pos:R:3:vel:R:3:forces:R:3
Au 5.01899039 4.46733820 6.01754553 0.00037810 0.00029057 -0.00201384 0.11046213 -0.57995492 0.44247955
Au 4.65153532 6.39657234 4.54562615 -0.00037810 -0.00029057 0.00201384 -0.11046213 0.57995492 -0.44247955
2
Time=7000.00000000 pbc="T T T" Lattice="23.91741943 -0.00000075 0.00000215 -0.00000037 11.95871544 -0.00000316 0.00000107 -0.00000316 11.95871735" energy=-3.08441162 virial="0.01682387 -0.05860460 0.02130377 -0.05860460 0.20414495 -0.07421023 0.02130377 -0.07421023 0.02697657" stress="0.00002003 -0.00001713 0.00000623 -0.00001713 0.00007480 -0.00002170 0.00000623 -0.00002170 0.00002300" Properties=species:S:1:pos:R:3:vel:R:3:forces:R:3
Au 5.16065149 4.29848682 5.69361952 0.00047246 -0.00089399 -0.00056738 0.02585198 -0.09005320 0.03273588
Au 4.50987422 6.56542372 4.86955216 -0.00047246 0.00089399 0.00056738 -0.02585198 0.09005320 -0.03273588
2
Time=7250.00000000 pbc="T T T" Lattice="23.91741943 -0.00000075 0.00000215 -0.00000037 11.95871544 -0.00000316 0.00000107 -0.00000316 11.95871735" energy=-3.07945251 virial="-0.09635210 0.27811068 -0.03281773 0.27811068 -0.80273902 0.09472515 -0.03281773 0.09472515 -0.01117779" stress="-0.00001305 0.00008131 -0.00000959 0.00008131 -0.00021957 0.00002769 -0.00000959 0.00002769 0.00001185" Properties=species:S:1:pos:R:3:vel:R:3:forces:R:3
Au 5.24760027 4.24178385 5.42202890 -0.00012586 0.00124073 -0.00140332 -0.11683647 0.33723676 -0.03979474
Au 4.42292544 6.62212669 5.14114278 0.00012586 -0.00124073 0.00140332 0.11683647 -0.33723676 0.03979474
2
Time=7500.00000000 pbc="T T T" Lattice="23.91741943 -0.00000075 0.00000215 -0.00000037 11.95871544 -0.00000316 0.00000107 -0.00000316 11.95871735" energy=-3.07803345 virial="0.15523671 -0.37344456 -0.06283960 -0.37344456 0.89837563 0.15116988 -0.06283960 0.15116988 0.02543739" stress="0.00006050 -0.00010918 -0.00001837 -0.00010918 0.00027776 0.00004420 -0.00001837 0.00004420 0.00002255" Properties=species:S:1:pos:R:3:vel:R:3:forces:R:3
Au 5.30450107 4.30313405 5.09163879 0.00063961 -0.00024878 -0.00225887 0.16541353 -0.39792645 -0.06695917
Au 4.36602464 6.56077649 5.47153289 -0.00063961 0.00024878 0.00225887 -0.16541353 0.39792645 0.06695917
2
Time=7750.00000000 pbc="T T T" Lattice="23.91741943 -0.00000075 0.00000215 -0.00000037 11.95871544 -0.00000316 0.00000107 -0.00000316 11.95871735" energy=-3.04533386 virial="-0.39332692 0.77151823 0.43006729 0.77151823 -1.51334727 -0.84358504 0.43006729 -0.84358504 -0.47023973" stress="-0.00009988 0.00022556 0.00012573 0.00022556 -0.00042732 -0.00024663 0.00012573 -0.00024663 -0.00012236" Properties=species:S:1:pos:R:3:vel:R:3:forces:R:3
Au 5.36153584 4.39966108 4.70615386 -0.00000305 0.00075585 -0.00115931 -0.37369098 0.73300186 0.40859716
Au 4.30898987 6.46424946 5.85701782 0.00000305 -0.00075585 0.00115931 0.37369098 -0.73300186 -0.40859716
2
Time=8000.00000000 pbc="T T T" Lattice="23.91741943 -0.00000075 0.00000215 -0.00000037 11.95871544 -0.00000316 0.00000107 -0.00000316 11.95871735" energy=-3.05822754 virial="0.33353935 -0.49591953 -0.61017376 -0.49591953 0.73735252 0.90723014 -0.61017376 0.90723014 1.11624557" stress="0.00011263 -0.00014499 -0.00017839 -0.00014499 0.00023069 0.00026524 -0.00017839 0.00026524 0.00034146" Properties=species:S:1:pos:R:3:vel:R:3:forces:R:3
Au 5.31254510 4.72231337 4.40845060 -0.00044081 0.00165567 -0.00074445 0.34941518 -0.51952434 -0.63921687
Au 4.35798061 6.14159717 6.15472108 0.00044081 -0.00165567 0.00074445 -0.34941518 0.51952434 0.63921687
2
Time=8250.00000000 pbc="T T T" Lattice="23.91741943 -0.00000075 0.00000215 -0.00000037 11.95871544 -0.00000316 0.00000107 -0.00000316 11.95871735" energy=-3.03279114 virial="-0.24649191 0.16801550 0.75866565 0.16801550 -0.11452393 -0.51712713 0.75866565 -0.51712713 -2.33506149" stress="-0.00005695 0.00004912 0.00022180 0.00004912 -0.00001837 -0.00015119 0.00022180 -0.00015119 -0.00066756" Properties=species:S:1:pos:R:3:vel:R:3:forces:R:3
Au 5.22836828 5.16400395 4.07166500 -0.00042921 0.00228340 -0.00176570 -0.31351885 0.21370285 0.96496464
Au 4.44215743 5.69990659 6.49150668 0.00042921 -0.00228340 0.00176570 0.31351885 -0.21370285 -0.96496464
2
Time=8500.00000000 pbc="T T T" Lattice="23.91741943 -0.00000075 0.00000215 -0.00000037 11.95871544 -0.00000316 0.00000107 -0.00000316 11.95871735" energy=-3.05958557 virial="-0.06975676 -0.04436105 0.35720412 -0.04436105 -0.02821091 0.22715989 0.35720412 0.22715989 -1.82913864" stress="-0.00000528 -0.00001297 0.00010443 -0.00001297 0.00000687 0.00006641 0.00010443 0.00006641 -0.00051965" Properties=species:S:1:pos:R:3:vel:R:3:forces:R:3
Au 5.07977578 5.58745048 4.02950602 -0.00128711 0.00177778 0.00256542 -0.14264432 -0.09071311 0.73044020
Au 4.59074993 5.27646006 6.53366566 0.00128711 -0.00177778 -0.00256542 0.14264432 0.09071311 -0.73044020
2
Time=8750.00000000 pbc="T T T" Lattice="23.91741943 -0.00000075 0.00000215 -0.00000037 11.95871544 -0.00000316 0.00000107 -0.00000316 11.95871735" energy=-3.06768799 virial="0.00122798 0.02268012 -0.04024239 0.02268012 0.41888827 -0.74325269 -0.04024239 -0.74325269 1.31878698" stress="0.00001548 0.00000663 -0.00001177 0.00000663 0.00013758 -0.00021730 -0.00001177 -0.00021730 0.00040068" Properties=species:S:1:pos:R:3:vel:R:3:forces:R:3
Au 4.86789855 6.03471703 4.21207814 -0.00059554 0.00201083 -0.00065536 0.01881351 0.34747413 -0.61653933
Au 4.80262716 4.82919351 6.35109354 0.00059554 -0.00201083 0.00065536 -0.01881351 -0.34747413 0.61653933
2
Time=9000.00000000 pbc="T T T" Lattice="23.91741943 -0.00000075 0.00000215 -0.00000037 11.95871544 -0.00000316 0.00000107 -0.00000316 11.95871735" energy=-3.02914429 virial="-0.02184809 0.17155501 -0.17565706 0.17155501 -1.34707963 1.37928972 -0.17565706 1.37928972 -1.41226879" stress="0.00000873 0.00005016 -0.00005135 0.00005016 -0.00037871 0.00040325 -0.00005135 0.00040325 -0.00039777" Properties=species:S:1:pos:R:3:vel:R:3:forces:R:3
Au 4.71987833 6.33797458 4.35390338 -0.00041687 0.00019762 0.00141723 0.09467514 -0.74340558 0.76118119
Au 4.95064738 4.52593596 6.20926830 0.00041687 -0.00019762 -0.00141723 -0.09467514 0.74340558 -0.76118119
2
Time=9250.00000000 pbc="T T T" Lattice="23.91741943 -0.00000075 0.00000215 -0.00000037 11.95871544 -0.00000316 0.00000107 -0.00000316 11.95871735" energy=-3.06616211 virial="0.05739495 -0.26560190 0.17449889 -0.26560190 1.22910404 -0.80751413 0.17449889 -0.80751413 0.53053209" stress="0.00003190 -0.00007765 0.00005102 -0.00007765 0.00037446 -0.00023608 0.00005102 -0.00023608 0.00017022" Properties=species:S:1:pos:R:3:vel:R:3:forces:R:3
Au 4.61718023 6.44115827 4.61854525 -0.00010661 -0.00054428 0.00128468 -0.13158990 0.60894787 -0.40007517
Au 5.05334548 4.42275227 5.94462643 0.00010661 0.00054428 -0.00128468 0.13158990 -0.60894787 0.40007517
2
Time=9500.00000000 pbc="T T T" Lattice="23.91741943 -0.00000075 0.00000215 -0.00000037 11.95871544 -0.00000316 0.00000107 -0.00000316 11.95871735" energy=-3.08341980 virial="-0.03321442 0.11348036 -0.03861672 0.11348036 -0.38771582 0.13193750 -0.03861672 0.13193750 -0.04489766" stress="0.00000541 0.00003318 -0.00001129 0.00003318 -0.00009824 0.00003857 -0.00001129 0.00003857 0.00000199" Properties=species:S:1:pos:R:3:vel:R:3:forces:R:3
Au 4.49876867 6.58161826 4.89036150 -0.00099311 0.00191269 0.00114063 0.04935363 -0.16862154 0.05738096
Au 5.17175704 4.28229228 5.67281018 0.00099311 -0.00191269 -0.00114063 -0.04935363 0.16862154 -0.05738096
2
Time=9750.00000000 pbc="T T T" Lattice="23.91741943 -0.00000075 0.00000215 -0.00000037 11.95871544 -0.00000316 0.00000107 -0.00000316 11.95871735" energy=-3.06712341 virial="-0.17450666 0.50042903 -0.05437156 0.50042903 -1.43507040 0.15592024 -0.05437156 0.15592024 -0.01694072" stress="-0.00003590 0.00014630 -0.00001590 0.00014630 -0.00040444 0.00004558 -0.00001590 0.00004558 0.00001016" Properties=species:S:1:pos:R:3:vel:R:3:forces:R:3
Au 4.41609557 6.63399280 5.15098459 0.00019275 -0.00119392 0.00105417 0.20815873 -0.59693238 0.06485664
Au 5.25443014 4.22991774 5.41218709 -0.00019275 0.00119392 -0.00105417 -0.20815873 0.59693238 -0.06485664
2
Time=10000.00000000 pbc="T T T" Lattice="23.91741943 -0.00000075 0.00000215 -0.00000037 11.95871544 -0.00000316 0.00000107 -0.00000316 11.95871735" energy=-3.07313538 virial="0.20969419 -0.49530429 -0.09906435 -0.49530429 1.16992426 0.23399314 -0.09906435 0.23399314 0.04680033" stress="0.00007642 -0.00014481 -0.00002896 -0.00014481 0.00035715 0.00006841 -0.00002896 0.00006841 0.00002880" Properties=species:S:1:pos:R:3:vel:R:3:forces:R:3
Au 4.36276966 6.54799909 5.50480274 -0.00039851 0.00036289 0.00108508 -0.22190182 0.52413905 0.10483152
Au 5.30775605 4.31591145 5.05836894 0.00039851 -0.00036289 -0.00108508 0.22190182 -0.52413905 -0.10483152
2
Time=10250.00000000 pbc="T T T" Lattice="23.91741943 -0.00000075 0.00000215 -0.00000037 11.95871544 -0.00000316 0.00000107 -0.00000316 11.95871735" energy=-3.05581665 virial="-0.34116249 0.65986019 0.38750629 0.65986019 -1.27627027 -0.74949628 0.38750629 -0.74949628 -0.44014522" stress="-0.00008463 0.00019292 0.00011329 0.00019292 -0.00035801 -0.00021912 0.00011329 -0.00021912 -0.00011356" Properties=species:S:1:pos:R:3:vel:R:3:forces:R:3
Au 4.31095665 6.44604346 5.87711402 -0.00005030 -0.00065668 0.00122615 0.32534656 -0.62926981 -0.36954194
Au 5.35956906 4.41786708 4.68605766 0.00005030 0.00065668 -0.00122615 -0.32534656 0.62926981 0.36954194
2
Time=10500.00000000 pbc="T T T" Lattice="23.91741943 -0.00000075 0.00000215 -0.00000037 11.95871544 -0.00000316 0.00000107 -0.00000316 11.95871735" energy=-3.08160400 virial="0.11258191 -0.17058328 -0.20100701 -0.17058328 0.25846660 0.30456454 -0.20100701 0.30456454 0.35888338" stress="0.00004803 -0.00004987 -0.00005877 -0.00004987 0.00009068 0.00008904 -0.00005877 0.00008904 0.00012004" Properties=species:S:1:pos:R:3:vel:R:3:forces:R:3
Au 4.34745716 6.17107522 6.15252745 0.00081268 -0.00231420 0.00022792 -0.11539626 0.17484754 0.20603186
Au 5.32306855 4.69283532 4.41064423 -0.00081268 0.00231420 -0.00022792 0.11539626 -0.17484754 -0.20603186
2
Time=10750.00000000 pbc="T T T" Lattice="23.91741943 -0.00000075 0.00000215 -0.00000037 11.95871544 -0.00000316 0.00000107 -0.00000316 11.95871735" energy=-3.08335876 virial="-0.05788395 0.06306219 0.14155650 0.06306219 -0.06870371 -0.15422004 0.14155650 -0.15422004 -0.34617877" stress="-0.00000181 0.00001844 0.00004139 0.00001844 -0.00000497 -0.00004509 0.00004139 -0.00004509 -0.00008609" Properties=species:S:1:pos:R:3:vel:R:3:forces:R:3
Au 4.39428106 5.91238723 6.36001461 -0.00035442 -0.00058110 0.00236641 0.06563076 -0.07150203 -0.16050148
Au 5.27624465 4.95152331 4.20315707 0.00035442 0.00058110 -0.00236641 -0.06563076 0.07150203 0.16050148
2
Time=11000.00000000 pbc="T T T" Lattice="23.91741943 -0.00000075 0.00000215 -0.00000037 11.95871544 -0.00000316 0.00000107 -0.00000316 11.95871735" energy=-3.01269531 virial="-0.24403881 0.11514698 0.83049468 0.11514698 -0.05433080 -0.39185955 0.83049468 -0.39185955 -2.82627743" stress="-0.00005623 0.00003366 0.00024280 0.00003366 -0.00000077 -0.00011456 0.00024280 -0.00011456 -0.00081117" Properties=species:S:1:pos:R:3:vel:R:3:forces:R:3
Au 4.46941431 5.60457677 6.52661435 0.00070307 -0.00167654 -0.00030754 0.33352436 -0.15736973 -1.13502528
Au 5.20111140 5.25933377 4.03655733 -0.00070307 0.00167654 0.00030754 -0.33352436 0.15736973 1.13502528
2
Time=11250.00000000 pbc="T T T" Lattice="23.91741943 -0.00000075 0.00000215 -0.00000037 11.95871544 -0.00000316 0.00000107 -0.00000316 11.95871735" energy=-3.05615234 virial="0.10148570 0.03156280 -0.46855047 0.03156280 0.00981626 -0.14572268 -0.46855047 -0.14572268 2.16325545" stress="0.00004479 0.00000923 -0.00013698 0.00000923 0.00001799 -0.00004260 -0.00013698 -0.00004260 0.00064756" Properties=species:S:1:pos:R:3:vel:R:3:forces:R:3
Au 4.57733927 5.35173912 6.47239599 0.00052277 -0.00083032 -0.00087409 -0.19673599 -0.06118634 0.90831256
Au 5.09318644 5.51217142 4.09077569 -0.00052277 0.00083032 0.00087409 0.19673599 0.06118634 -0.90831256
2
Time=11500.00000000 pbc="T T T" Lattice="23.91741943 -0.00000075 0.00000215 -0.00000037 11.95871544 -0.00000316 0.00000107 -0.00000316 11.95871735" energy=-3.07228088 virial="-0.02670487 -0.04741007 0.18392521 -0.04741007 -0.08416869 0.32652864 0.18392521 0.32652864 -1.26675069" stress="0.00000731 -0.00001386 0.00005377 -0.00001386 -0.00000949 0.00009546 0.00005377 0.00009546 -0.00035523" Properties=species:S:1:pos:R:3:vel:R:3:forces:R:3
Au 4.65770122 5.11672413 6.50450867 -0.00000149 -0.00075599 0.00117831 0.07519888 0.13350312 -0.51791936